ITEM: TIMESTEP
-1
ITEM: NUMBER OF ATOMS
500
ITEM: BOX BOUNDS pp pp pp
0 58.1392
0 58.1392
0 58.1392
ITEM: ATOMS id type element xu yu zu
0 1 Ar 0 0 0
1 1 Ar 0 0 6.45991
2 1 Ar 0 0 12.9198
3 1 Ar 0 0 19.3797
4 1 Ar 0 0 25.8396
5 1 Ar 0 0 32.2995
6 1 Ar 0 0 38.7595
7 1 Ar 0 0 45.2194
8 1 Ar 0 6.45991 0
9 1 Ar 0 6.45991 6.45991
10 1 Ar 0 6.45991 12.9198
11 1 Ar 0 6.45991 19.3797
12 1 Ar 0 6.45991 25.8396
13 1 Ar 0 6.45991 32.2995
14 1 Ar 0 6.45991 38.7595
15 1 Ar 0 6.45991 45.2194
16 1 Ar 0 12.9198 0
17 1 Ar 0 12.9198 6.45991
18 1 Ar 0 12.9198 12.9198
19 1 Ar 0 12.9198 19.3797
20 1 Ar 0 12.9198 25.8396
21 1 Ar 0 12.9198 32.2995
22 1 Ar 0 12.9198 38.7595
23 1 Ar 0 12.9198 45.2194
24 1 Ar 0 19.3797 0
25 1 Ar 0 19.3797 6.45991
26 1 Ar 0 19.3797 12.9198
27 1 Ar 0 19.3797 19.3797
28 1 Ar 0 19.3797 25.8396
29 1 Ar 0 19.3797 32.2995
30 1 Ar 0 19.3797 38.7595
31 1 Ar 0 19.3797 45.2194
32 1 Ar 0 25.8396 0
33 1 Ar 0 25.8396 6.45991
34 1 Ar 0 25.8396 12.9198
35 1 Ar 0 25.8396 19.3797
36 1 Ar 0 25.8396 25.8396
37 1 Ar 0 25.8396 32.2995
38 1 Ar 0 25.8396 38.7595
39 1 Ar 0 25.8396 45.2194
40 1 Ar 0 32.2995 0
41 1 Ar 0 32.2995 6.45991
42 1 Ar 0 32.2995 12.9198
43 1 Ar 0 32.2995 19.3797
44 1 Ar 0 32.2995 25.8396
45 1 Ar 0 32.2995 32.2995
46 1 Ar 0 32.2995 38.7595
47 1 Ar 0 32.2995 45.2194
48 1 Ar 0 38.7595 0
49 1 Ar 0 38.7595 6.45991
50 1 Ar 0 38.7595 12.9198
51 1 Ar 0 38.7595 19.3797
52 1 Ar 0 38.7595 25.8396
53 1 Ar 0 38.7595 32.2995
54 1 Ar 0 38.7595 38.7595
55 1 Ar 0 38.7595 45.2194
56 1 Ar 0 45.2194 0
57 1 Ar 0 45.2194 6.45991
58 1 Ar 0 45.2194 12.9198
59 1 Ar 0 45.2194 19.3797
60 1 Ar 0 45.2194 25.8396
61 1 Ar 0 45.2194 32.2995
62 1 Ar 0 45.2194 38.7595
63 1 Ar 0 45.2194 45.2194
64 1 Ar 6.45991 0 0
65 1 Ar 6.45991 0 6.45991
66 1 Ar 6.45991 0 12.9198
67 1 Ar 6.45991 0 19.3797
68 1 Ar 6.45991 0 25.8396
69 1 Ar 6.45991 0 32.2995
70 1 Ar 6.45991 0 38.7595
71 1 Ar 6.45991 0 45.2194
72 1 Ar 6.45991 6.45991 0
73 1 Ar 6.45991 6.45991 6.45991
74 1 Ar 6.45991 6.45991 12.9198
75 1 Ar 6.45991 6.45991 19.3797
76 1 Ar 6.45991 6.45991 25.8396
77 1 Ar 6.45991 6.45991 32.2995
78 1 Ar 6.45991 6.45991 38.7595
79 1 Ar 6.45991 6.45991 45.2194
80 1 Ar 6.45991 12.9198 0
81 1 Ar 6.45991 12.9198 6.45991
82 1 Ar 6.45991 12.9198 12.9198
83 1 Ar 6.45991 12.9198 19.3797
84 1 Ar 6.45991 12.9198 25.8396
85 1 Ar 6.45991 12.9198 32.2995
86 1 Ar 6.45991 12.9198 38.7595
87 1 Ar 6.45991 12.9198 45.2194
88 1 Ar 6.45991 19.3797 0
89 1 Ar 6.45991 19.3797 6.45991
90 1 Ar 6.45991 19.3797 12.9198
91 1 Ar 6.45991 19.3797 19.3797
92 1 Ar 6.45991 19.3797 25.8396
93 1 Ar 6.45991 19.3797 32.2995
94 1 Ar 6.45991 19.3797 38.7595
95 1 Ar 6.45991 19.3797 45.2194
96 1 Ar 6.45991 25.8396 0
97 1 Ar 6.45991 25.8396 6.45991
98 1 Ar 6.45991 25.8396 12.9198
99 1 Ar 6.45991 25.8396 19.3797
100 1 Ar 6.45991 25.8396 25.8396
101 1 Ar 6.45991 25.8396 32.2995
102 1 Ar 6.45991 25.8396 38.7595
103 1 Ar 6.45991 25.8396 45.2194
104 1 Ar 6.45991 32.2995 0
105 1 Ar 6.45991 32.2995 6.45991
106 1 Ar 6.45991 32.2995 12.9198
107 1 Ar 6.45991 32.2995 19.3797
108 1 Ar 6.45991 32.2995 25.8396
109 1 Ar 6.45991 32.2995 32.2995
110 1 Ar 6.45991 32.2995 38.7595
111 1 Ar 6.45991 32.2995 45.2194
112 1 Ar 6.45991 38.7595 0
113 1 Ar 6.45991 38.7595 6.45991
114 1 Ar 6.45991 38.7595 12.9198
115 1 Ar 6.45991 38.7595 19.3797
116 1 Ar 6.45991 38.7595 25.8396
117 1 Ar 6.45991 38.7595 32.2995
118 1 Ar 6.45991 38.7595 38.7595
119 1 Ar 6.45991 38.7595 45.2194
120 1 Ar 6.45991 45.2194 0
121 1 Ar 6.45991 45.2194 6.45991
122 1 Ar 6.45991 45.2194 12.9198
123 1 Ar 6.45991 45.2194 19.3797
124 1 Ar 6.45991 45.2194 25.8396
125 1 Ar 6.45991 45.2194 32.2995
126 1 Ar 6.45991 45.2194 38.7595
127 1 Ar 6.45991 45.2194 45.2194
128 1 Ar 12.9198 0 0
129 1 Ar 12.9198 0 6.45991
130 1 Ar 12.9198 0 12.9198
131 1 Ar 12.9198 0 19.3797
132 1 Ar 12.9198 0 25.8396
133 1 Ar 12.9198 0 32.2995
134 1 Ar 12.9198 0 38.7595
135 1 Ar 12.9198 0 45.2194
136 1 Ar 12.9198 6.45991 0
137 1 Ar 12.9198 6.45991 6.45991
138 1 Ar 12.9198 6.45991 12.9198
139 1 Ar 12.9198 6.45991 19.3797
140 1 Ar 12.9198 6.45991 25.8396
141 1 Ar 12.9198 6.45991 32.2995
142 1 Ar 12.9198 6.45991 38.7595
143 1 Ar 12.9198 6.45991 45.2194
144 1 Ar 12.9198 12.9198 0
145 1 Ar 12.9198 12.9198 6.45991
146 1 Ar 12.9198 12.9198 12.9198
147 1 Ar 12.9198 12.9198 19.3797
148 1 Ar 12.9198 12.9198 25.8396
149 1 Ar 12.9198 12.9198 32.2995
150 1 Ar 12.9198 12.9198 38.7595
151 1 Ar 12.9198 12.9198 45.2194
152 1 Ar 12.9198 19.3797 0
153 1 Ar 12.9198 19.3797 6.45991
154 1 Ar 12.9198 19.3797 12.9198
155 1 Ar 12.9198 19.3797 19.3797
156 1 Ar 12.9198 19.3797 25.8396
157 1 Ar 12.9198 19.3797 32.2995
158 1 Ar 12.9198 19.3797 38.7595
159 1 Ar 12.9198 19.3797 45.2194
160 1 Ar 12.9198 25.8396 0
161 1 Ar 12.9198 25.8396 6.45991
162 1 Ar 12.9198 25.8396 12.9198
163 1 Ar 12.9198 25.8396 19.3797
164 1 Ar 12.9198 25.8396 25.8396
165 1 Ar 12.9198 25.8396 32.2995
166 1 Ar 12.9198 25.8396 38.7595
167 1 Ar 12.9198 25.8396 45.2194
168 1 Ar 12.9198 32.2995 0
169 1 Ar 12.9198 32.2995 6.45991
170 1 Ar 12.9198 32.2995 12.9198
171 1 Ar 12.9198 32.2995 19.3797
172 1 Ar 12.9198 32.2995 25.8396
173 1 Ar 12.9198 32.2995 32.2995
174 1 Ar 12.9198 32.2995 38.7595
175 1 Ar 12.9198 32.2995 45.2194
176 1 Ar 12.9198 38.7595 0
177 1 Ar 12.9198 38.7595 6.45991
178 1 Ar 12.9198 38.7595 12.9198
179 1 Ar 12.9198 38.7595 19.3797
180 1 Ar 12.9198 38.7595 25.8396
181 1 Ar 12.9198 38.7595 32.2995
182 1 Ar 12.9198 38.7595 38.7595
183 1 Ar 12.9198 38.7595 45.2194
184 1 Ar 12.9198 45.2194 0
185 1 Ar 12.9198 45.2194 6.45991
186 1 Ar 12.9198 45.2194 12.9198
187 1 Ar 12.9198 45.2194 19.3797
188 1 Ar 12.9198 45.2194 25.8396
189 1 Ar 12.9198 45.2194 32.2995
190 1 Ar 12.9198 45.2194 38.7595
191 1 Ar 12.9198 45.2194 45.2194
192 1 Ar 19.3797 0 0
193 1 Ar 19.3797 0 6.45991
194 1 Ar 19.3797 0 12.9198
195 1 Ar 19.3797 0 19.3797
196 1 Ar 19.3797 0 25.8396
197 1 Ar 19.3797 0 32.2995
198 1 Ar 19.3797 0 38.7595
199 1 Ar 19.3797 0 45.2194
200 1 Ar 19.3797 6.45991 0
201 1 Ar 19.3797 6.45991 6.45991
202 1 Ar 19.3797 6.45991 12.9198
203 1 Ar 19.3797 6.45991 19.3797
204 1 Ar 19.3797 6.45991 25.8396
205 1 Ar 19.3797 6.45991 32.2995
206 1 Ar 19.3797 6.45991 38.7595
207 1 Ar 19.3797 6.45991 45.2194
208 1 Ar 19.3797 12.9198 0
209 1 Ar 19.3797 12.9198 6.45991
210 1 Ar 19.3797 12.9198 12.9198
211 1 Ar 19.3797 12.9198 19.3797
212 1 Ar 19.3797 12.9198 25.8396
213 1 Ar 19.3797 12.9198 32.2995
214 1 Ar 19.3797 12.9198 38.7595
215 1 Ar 19.3797 12.9198 45.2194
216 1 Ar 19.3797 19.3797 0
217 1 Ar 19.3797 19.3797 6.45991
218 1 Ar 19.3797 19.3797 12.9198
219 1 Ar 19.3797 19.3797 19.3797
220 1 Ar 19.3797 19.3797 25.8396
221 1 Ar 19.3797 19.3797 32.2995
222 1 Ar 19.3797 19.3797 38.7595
223 1 Ar 19.3797 19.3797 45.2194
224 1 Ar 19.3797 25.8396 0
225 1 Ar 19.3797 25.8396 6.45991
226 1 Ar 19.3797 25.8396 12.9198
227 1 Ar 19.3797 25.8396 19.3797
228 1 Ar 19.3797 25.8396 25.8396
229 1 Ar 19.3797 25.8396 32.2995
230 1 Ar 19.3797 25.8396 38.7595
231 1 Ar 19.3797 25.8396 45.2194
232 1 Ar 19.3797 32.2995 0
233 1 Ar 19.3797 32.2995 6.45991
234 1 Ar 19.3797 32.2995 12.9198
235 1 Ar 19.3797 32.2995 19.3797
236 1 Ar 19.3797 32.2995 25.8396
237 1 Ar 19.3797 32.2995 32.2995
238 1 Ar 19.3797 32.2995 38.7595
239 1 Ar 19.3797 32.2995 45.2194
240 1 Ar 19.3797 38.7595 0
241 1 Ar 19.3797 38.7595 6.45991
242 1 Ar 19.3797 38.7595 12.9198
243 1 Ar 19.3797 38.7595 19.3797
244 1 Ar 19.3797 38.7595 25.8396
245 1 Ar 19.3797 38.7595 32.2995
246 1 Ar 19.3797 38.7595 38.7595
247 1 Ar 19.3797 38.7595 45.2194
248 1 Ar 19.3797 45.2194 0
249 1 Ar 19.3797 45.2194 6.45991
250 1 Ar 19.3797 45.2194 12.9198
251 1 Ar 19.3797 45.2194 19.3797
252 1 Ar 19.3797 45.2194 25.8396
253 1 Ar 19.3797 45.2194 32.2995
254 1 Ar 19.3797 45.2194 38.7595
255 1 Ar 19.3797 45.2194 45.2194
256 1 Ar 25.8396 0 0
257 1 Ar 25.8396 0 6.45991
258 1 Ar 25.8396 0 12.9198
259 1 Ar 25.8396 0 19.3797
260 1 Ar 25.8396 0 25.8396
261 1 Ar 25.8396 0 32.2995
262 1 Ar 25.8396 0 38.7595
263 1 Ar 25.8396 0 45.2194
264 1 Ar 25.8396 6.45991 0
265 1 Ar 25.8396 6.45991 6.45991
266 1 Ar 25.8396 6.45991 12.9198
267 1 Ar 25.8396 6.45991 19.3797
268 1 Ar 25.8396 6.45991 25.8396
269 1 Ar 25.8396 6.45991 32.2995
270 1 Ar 25.8396 6.45991 38.7595
271 1 Ar 25.8396 6.45991 45.2194
272 1 Ar 25.8396 12.9198 0
273 1 Ar 25.8396 12.9198 6.45991
274 1 Ar 25.8396 12.9198 12.9198
275 1 Ar 25.8396 12.9198 19.3797
276 1 Ar 25.8396 12.9198 25.8396
277 1 Ar 25.8396 12.9198 32.2995
278 1 Ar 25.8396 12.9198 38.7595
279 1 Ar 25.8396 12.9198 45.2194
280 1 Ar 25.8396 19.3797 0
281 1 Ar 25.8396 19.3797 6.45991
282 1 Ar 25.8396 19.3797 12.9198
283 1 Ar 25.8396 19.3797 19.3797
284 1 Ar 25.8396 19.3797 25.8396
285 1 Ar 25.8396 19.3797 32.2995
286 1 Ar 25.8396 19.3797 38.7595
287 1 Ar 25.8396 19.3797 45.2194
288 1 Ar 25.8396 25.8396 0
289 1 Ar 25.8396 25.8396 6.45991
290 1 Ar 25.8396 25.8396 12.9198
291 1 Ar 25.8396 25.8396 19.3797
292 1 Ar 25.8396 25.8396 25.8396
293 1 Ar 25.8396 25.8396 32.2995
294 1 Ar 25.8396 25.8396 38.7595
295 1 Ar 25.8396 25.8396 45.2194
296 1 Ar 25.8396 32.2995 0
297 1 Ar 25.8396 32.2995 6.45991
298 1 Ar 25.8396 32.2995 12.9198
299 1 Ar 25.8396 32.2995 19.3797
300 1 Ar 25.8396 32.2995 25.8396
301 1 Ar 25.8396 32.2995 32.2995
302 1 Ar 25.8396 32.2995 38.7595
303 1 Ar 25.8396 32.2995 45.2194
304 1 Ar 25.8396 38.7595 0
305 1 Ar 25.8396 38.7595 6.45991
306 1 Ar 25.8396 38.7595 12.9198
307 1 Ar 25.8396 38.7595 19.3797
308 1 Ar 25.8396 38.7595 25.8396
309 1 Ar 25.8396 38.7595 32.2995
310 1 Ar 25.8396 38.7595 38.7595
311 1 Ar 25.8396 38.7595 45.2194
312 1 Ar 25.8396 45.2194 0
313 1 Ar 25.8396 45.2194 6.45991
314 1 Ar 25.8396 45.2194 12.9198
315 1 Ar 25.8396 45.2194 19.3797
316 1 Ar 25.8396 45.2194 25.8396
317 1 Ar 25.8396 45.2194 32.2995
318 1 Ar 25.8396 45.2194 38.7595
319 1 Ar 25.8396 45.2194 45.2194
320 1 Ar 32.2995 0 0
321 1 Ar 32.2995 0 6.45991
322 1 Ar 32.2995 0 12.9198
323 1 Ar 32.2995 0 19.3797
324 1 Ar 32.2995 0 25.8396
325 1 Ar 32.2995 0 32.2995
326 1 Ar 32.2995 0 38.7595
327 1 Ar 32.2995 0 45.2194
328 1 Ar 32.2995 6.45991 0
329 1 Ar 32.2995 6.45991 6.45991
330 1 Ar 32.2995 6.45991 12.9198
331 1 Ar 32.2995 6.45991 19.3797
332 1 Ar 32.2995 6.45991 25.8396
333 1 Ar 32.2995 6.45991 32.2995
334 1 Ar 32.2995 6.45991 38.7595
335 1 Ar 32.2995 6.45991 45.2194
336 1 Ar 32.2995 12.9198 0
337 1 Ar 32.2995 12.9198 6.45991
338 1 Ar 32.2995 12.9198 12.9198
339 1 Ar 32.2995 12.9198 19.3797
340 1 Ar 32.2995 12.9198 25.8396
341 1 Ar 32.2995 12.9198 32.2995
342 1 Ar 32.2995 12.9198 38.7595
343 1 Ar 32.2995 12.9198 45.2194
344 1 Ar 32.2995 19.3797 0
345 1 Ar 32.2995 19.3797 6.45991
346 1 Ar 32.2995 19.3797 12.9198
347 1 Ar 32.2995 19.3797 19.3797
348 1 Ar 32.2995 19.3797 25.8396
349 1 Ar 32.2995 19.3797 32.2995
350 1 Ar 32.2995 19.3797 38.7595
351 1 Ar 32.2995 19.3797 45.2194
352 1 Ar 32.2995 25.8396 0
353 1 Ar 32.2995 25.8396 6.45991
354 1 Ar 32.2995 25.8396 12.9198
355 1 Ar 32.2995 25.8396 19.3797
356 1 Ar 32.2995 25.8396 25.8396
357 1 Ar 32.2995 25.8396 32.2995
358 1 Ar 32.2995 25.8396 38.7595
359 1 Ar 32.2995 25.8396 45.2194
360 1 Ar 32.2995 32.2995 0
361 1 Ar 32.2995 32.2995 6.45991
362 1 Ar 32.2995 32.2995 12.9198
363 1 Ar 32.2995 32.2995 19.3797
364 1 Ar 32.2995 32.2995 25.8396
365 1 Ar 32.2995 32.2995 32.2995
366 1 Ar 32.2995 32.2995 38.7595
367 1 Ar 32.2995 32.2995 45.2194
368 1 Ar 32.2995 38.7595 0
369 1 Ar 32.2995 38.7595 6.45991
370 1 Ar 32.2995 38.7595 12.9198
371 1 Ar 32.2995 38.7595 19.3797
372 1 Ar 32.2995 38.7595 25.8396
373 1 Ar 32.2995 38.7595 32.2995
374 1 Ar 32.2995 38.7595 38.7595
375 1 Ar 32.2995 38.7595 45.2194
376 1 Ar 32.2995 45.2194 0
377 1 Ar 32.2995 45.2194 6.45991
378 1 Ar 32.2995 45.2194 12.9198
379 1 Ar 32.2995 45.2194 19.3797
380 1 Ar 32.2995 45.2194 25.8396
381 1 Ar 32.2995 45.2194 32.2995
382 1 Ar 32.2995 45.2194 38.7595
383 1 Ar 32.2995 45.2194 45.2194
384 1 Ar 38.7595 0 0
385 1 Ar 38.7595 0 6.45991
386 1 Ar 38.7595 0 12.9198
387 1 Ar 38.7595 0 19.3797
388 1 Ar 38.7595 0 25.8396
389 1 Ar 38.7595 0 32.2995
390 1 Ar 38.7595 0 38.7595
391 1 Ar 38.7595 0 45.2194
392 1 Ar 38.7595 6.45991 0
393 1 Ar 38.7595 6.45991 6.45991
394 1 Ar 38.7595 6.45991 12.9198
395 1 Ar 38.7595 6.45991 19.3797
396 1 Ar 38.7595 6.45991 25.8396
397 1 Ar 38.7595 6.45991 32.2995
398 1 Ar 38.7595 6.45991 38.7595
399 1 Ar 38.7595 6.45991 45.2194
400 1 Ar 38.7595 12.9198 0
401 1 Ar 38.7595 12.9198 6.45991
402 1 Ar 38.7595 12.9198 12.9198
403 1 Ar 38.7595 12.9198 19.3797
404 1 Ar 38.7595 12.9198 25.8396
405 1 Ar 38.7595 12.9198 32.2995
406 1 Ar 38.7595 12.9198 38.7595
407 1 Ar 38.7595 12.9198 45.2194
408 1 Ar 38.7595 19.3797 0
409 1 Ar 38.7595 19.3797 6.45991
410 1 Ar 38.7595 19.3797 12.9198
411 1 Ar 38.7595 19.3797 19.3797
412 1 Ar 38.7595 19.3797 25.8396
413 1 Ar 38.7595 19.3797 32.2995
414 1 Ar 38.7595 19.3797 38.7595
415 1 Ar 38.7595 19.3797 45.2194
416 1 Ar 38.7595 25.8396 0
417 1 Ar 38.7595 25.8396 6.45991
418 1 Ar 38.7595 25.8396 12.9198
419 1 Ar 38.7595 25.8396 19.3797
420 1 Ar 38.7595 25.8396 25.8396
421 1 Ar 38.7595 25.8396 32.2995
422 1 Ar 38.7595 25.8396 38.7595
423 1 Ar 38.7595 25.8396 45.2194
424 1 Ar 38.7595 32.2995 0
425 1 Ar 38.7595 32.2995 6.45991
426 1 Ar 38.7595 32.2995 12.9198
427 1 Ar 38.7595 32.2995 19.3797
428 1 Ar 38.7595 32.2995 25.8396
429 1 Ar 38.7595 32.2995 32.2995
430 1 Ar 38.7595 32.2995 38.7595
431 1 Ar 38.7595 32.2995 45.2194
432 1 Ar 38.7595 38.7595 0
433 1 Ar 38.7595 38.7595 6.45991
434 1 Ar 38.7595 38.7595 12.9198
435 1 Ar 38.7595 38.7595 19.3797
436 1 Ar 38.7595 38.7595 25.8396
437 1 Ar 38.7595 38.7595 32.2995
438 1 Ar 38.7595 38.7595 38.7595
439 1 Ar 38.7595 38.7595 45.2194
440 1 Ar 38.7595 45.2194 0
441 1 Ar 38.7595 45.2194 6.45991
442 1 Ar 38.7595 45.2194 12.9198
443 1 Ar 38.7595 45.2194 19.3797
444 1 Ar 38.7595 45.2194 25.8396
445 1 Ar 38.7595 45.2194 32.2995
446 1 Ar 38.7595 45.2194 38.7595
447 1 Ar 38.7595 45.2194 45.2194
448 1 Ar 45.2194 0 0
449 1 Ar 45.2194 0 6.45991
450 1 Ar 45.2194 0 12.9198
451 1 Ar 45.2194 0 19.3797
452 1 Ar 45.2194 0 25.8396
453 1 Ar 45.2194 0 32.2995
454 1 Ar 45.2194 0 38.7595
455 1 Ar 45.2194 0 45.2194
456 1 Ar 45.2194 6.45991 0
457 1 Ar 45.2194 6.45991 6.45991
458 1 Ar 45.2194 6.45991 12.9198
459 1 Ar 45.2194 6.45991 19.3797
460 1 Ar 45.2194 6.45991 25.8396
461 1 Ar 45.2194 6.45991 32.2995
462 1 Ar 45.2194 6.45991 38.7595
463 1 Ar 45.2194 6.45991 45.2194
464 1 Ar 45.2194 12.9198 0
465 1 Ar 45.2194 12.9198 6.45991
466 1 Ar 45.2194 12.9198 12.9198
467 1 Ar 45.2194 12.9198 19.3797
468 1 Ar 45.2194 12.9198 25.8396
469 1 Ar 45.2194 12.9198 32.2995
470 1 Ar 45.2194 12.9198 38.7595
471 1 Ar 45.2194 12.9198 45.2194
472 1 Ar 45.2194 19.3797 0
473 1 Ar 45.2194 19.3797 6.45991
474 1 Ar 45.2194 19.3797 12.9198
475 1 Ar 45.2194 19.3797 19.3797
476 1 Ar 45.2194 19.3797 25.8396
477 1 Ar 45.2194 19.3797 32.2995
478 1 Ar 45.2194 19.3797 38.7595
479 1 Ar 45.2194 19.3797 45.2194
480 1 Ar 45.2194 25.8396 0
481 1 Ar 45.2194 25.8396 6.45991
482 1 Ar 45.2194 25.8396 12.9198
483 1 Ar 45.2194 25.8396 19.3797
484 1 Ar 45.2194 25.8396 25.8396
485 1 Ar 45.2194 25.8396 32.2995
486 1 Ar 45.2194 25.8396 38.7595
487 1 Ar 45.2194 25.8396 45.2194
488 1 Ar 45.2194 32.2995 0
489 1 Ar 45.2194 32.2995 6.45991
490 1 Ar 45.2194 32.2995 12.9198
491 1 Ar 45.2194 32.2995 19.3797
492 1 Ar 45.2194 32.2995 25.8396
493 1 Ar 45.2194 32.2995 32.2995
494 1 Ar 45.2194 32.2995 38.7595
495 1 Ar 45.2194 32.2995 45.2194
496 1 Ar 45.2194 38.7595 0
497 1 Ar 45.2194 38.7595 6.45991
498 1 Ar 45.2194 38.7595 12.9198
499 1 Ar 45.2194 38.7595 19.3797
ITEM: TIMESTEP
19999
ITEM: NUMBER OF ATOMS
500
ITEM: BOX BOUNDS pp pp pp
0 58.1392
0 58.1392
0 58.1392
ITEM: ATOMS id type element xu yu zu
0 1 Ar 38.7263 4.68688 41.1877
1 1 Ar 50.7711 30.0688 30.6621
2 1 Ar 9.87339 1.66849 40.6742
3 1 Ar 13.2245 10.909 12.5625
4 1 Ar 32.3636 33.2909 22.1377
5 1 Ar 56.3554 8.62355 29.4736
6 1 Ar 22.3816 0.0535691 36.1229
7 1 Ar 51.899 2.66377 35.363
8 1 Ar 42.7277 19.8108 24.2615
9 1 Ar 29.5792 7.38679 56.4839
10 1 Ar 16.939 9.59021 13.5171
11 1 Ar 22.9918 27.0302 15.3778
12 1 Ar 0.0274577 6.42252 25.8583
13 1 Ar 57.805 6.38704 32.0703
14 1 Ar 8.14761 3.07269 45.865
15 1 Ar 3.59333 6.43674 28.184
16 1 Ar 19.6134 9.95747 8.10202
17 1 Ar 41.3113 14.7605 7.77652
18 1 Ar 57.9966 12.9146 12.7567
19 1 Ar 57.9064 12.796 19.2685
20 1 Ar 0.00769119 12.9137 25.8468
21 1 Ar 19.9404 38.4594 54.7825
22 1 Ar 57.5641 26.9824 45.8252
23 1 Ar 4.21505 27.3111 23.1596
24 1 Ar 21.5303 35.5041 56.9
25 1 Ar 56.4555 10.402 32.9062
26 1 Ar 0.0544921 19.6461 12.7741
27 1 Ar 17.0667 2.33446 10.4789
28 1 Ar 43.625 30 3.49999
29 1 Ar 35.8236 12.4997 23.7505
30 1 Ar 14.2094 48.5551 18.1064
31 1 Ar 29.4274 28.8287 14.5237
32 1 Ar 22.26 8.41409 56.4034
33 1 Ar 28.6345 21.7151 42.7989
34 1 Ar 13.9078 53.2538 33.473
35 1 Ar 44.1797 34.7422 8.89062
36 1 Ar 51.9291 8.70026 30.3901
37 1 Ar 4.74905 22.6325 46.5837
38 1 Ar 0.103175 25.5821 38.9022
39 1 Ar 25.4757 13.5825 12.689
40 1 Ar 31.8289 36.5702 28.9333
41 1 Ar 30.787 57.5284 40.6735
42 1 Ar 21.0157 23.7556 15.7105
43 1 Ar 38.3202 31.4223 18.805
44 1 Ar 22.0828 32.4241 13.7908
45 1 Ar 29.4389 32.8009 15.4795
46 1 Ar 3.42763 37.751 44.0045
47 1 Ar 5.40571 28.8345 17.4456
48 1 Ar 0.299747 25.9186 4.39968
49 1 Ar 28.8084 40.2967 47.6844
50 1 Ar 25.0693 37.8881 4.64445
51 1 Ar 40.8208 6.71313 9.9585
52 1 Ar 34.9336 7.08105 22.082
53 1 Ar 40.0778 34.3504 9.90179
54 1 Ar 22.0718 24.1173 36.1377
55 1 Ar 28.125 43.1875 45.1875
56 1 Ar 1.72719 47.5829 1.42948
57 1 Ar 0.12077 45.3397 6.3022
58 1 Ar 8.26834 48.6294 20.5469
59 1 Ar 24.1716 9.32612 9.08591
60 1 Ar 17.5044 5.78297 9.47246
61 1 Ar 26.7202 26.7331 34.8775
62 1 Ar 50.6461 34.6063 32.4743
63 1 Ar 39.7455 37.3978 23.7126
64 1 Ar 28.9542 17.7878 37.837
65 1 Ar 6.36393 0.0845255 6.25762
66 1 Ar 6.44837 0.0155892 12.9217
67 1 Ar 5.95566 3.05791 15.8479
68 1 Ar 35.8611 8.2623 9.5753
69 1 Ar 33.2665 18.5794 20.3133
70 1 Ar 1.60009 39.8997 13.4176
71 1 Ar 41.572 36.761 12.5847
72 1 Ar 21.9093 5.95988 9.5118
73 1 Ar 39.7452 1.53871 9.48691
74 1 Ar 6.46076 6.45289 12.9304
75 1 Ar 6.42967 6.44592 19.3349
76 1 Ar 38.815 9.87839 13.1119
77 1 Ar 0.389889 4.09978 29.0662
78 1 Ar 7.21434 4.02192 42.3012
79 1 Ar 6.46186 6.45827 45.2201
80 1 Ar 11.7093 1.1806 19.7058
81 1 Ar 6.71318 2.5308 29.3673
82 1 Ar 6.49387 12.9554 12.9387
83 1 Ar 19.2822 21.9625 3.92726
84 1 Ar 22.8685 16.4101 32.0167
85 1 Ar 2.68631 27.817 40.4714
86 1 Ar 25.1494 2.89567 16.5368
87 1 Ar 50.5571 2.41787 31.7795
88 1 Ar 14.1306 20.6767 7.25853
89 1 Ar 6.56052 21.7078 7.79877
90 1 Ar 7.98571 16.5905 10.7644
91 1 Ar 16.4919 3.55029 15.1329
92 1 Ar 14.2165 1.58699 23.5292
93 1 Ar 10.0239 24.5376 36.2532
94 1 Ar 34.0631 32.7773 42.2201
95 1 Ar 18.1683 28.3504 33.0259
96 1 Ar 4.54201 36.7052 55.1149
97 1 Ar 27.4012 23.9781 22.0379
98 1 Ar 7 3.75 9.60938
99 1 Ar 8.38826 26.9087 19.7595
100 1 Ar 25.0172 26.892 31.181
101 1 Ar 14.9089 2.77149 7.39513
102 1 Ar 6.40017 26.0851 38.6936
103 1 Ar 6.83852 25.8269 45.0991
104 1 Ar 6.49174 32.4302 0.0470716
105 1 Ar 8.19717 17.3087 38.1113
106 1 Ar 28.7958 4.31435 16.3878
107 1 Ar 2.49191 4.44802 34.2967
108 1 Ar 26.3412 23.1648 7.27406
109 1 Ar 26.9689 6.50499 23.959
110 1 Ar 7.08914 33.3546 40.1457
111 1 Ar 42.7501 1.79817 12.7563
112 1 Ar 17.1076 55.4791 30.8039
113 1 Ar 42.7631 15.8768 20.0837
114 1 Ar 3.41365 1.81474 31.5779
115 1 Ar 2.34736 51.1534 2.61162
116 1 Ar 20.98 31.3869 17.3225
117 1 Ar 4.19295 28.6117 3.48984
118 1 Ar 34.6328 26.9108 15.5226
119 1 Ar 44.9396 34.168 29.7162
120 1 Ar 6.38328 45.2477 0.0883654
121 1 Ar 30.2864 38.8902 38.635
122 1 Ar 6.79261 45.3298 13.1813
123 1 Ar 57.2515 2.23038 31.9804
124 1 Ar 49.7499 20.6349 33.3805
125 1 Ar 31.299 11.6735 15.0841
126 1 Ar 33.8218 29.3178 47.9343
127 1 Ar 32.1761 9.10498 24.7695
128 1 Ar 42.9098 10.4748 17.3095
129 1 Ar 12.9197 58.1391 6.45986
130 1 Ar 14.4409 10.7098 3.72396
131 1 Ar 28.5185 3.66851 20.0806
132 1 Ar 28.7116 26.784 29.1064
133 1 Ar 8.11041 20.9739 11.8874
134 1 Ar 5.91911 24.3136 2.98805
135 1 Ar 10.3899 21.5242 5.61404
136 1 Ar 46.3105 14.7045 18.4722
137 1 Ar 36.2047 5.82264 17.4971
138 1 Ar 13.4482 5.84734 13.7093
139 1 Ar 12.9206 6.45885 19.381
140 1 Ar 10.1227 42.3901 17.0335
141 1 Ar 9.38451 15.0321 0.0425812
142 1 Ar 29.9739 15.7934 42.1166
143 1 Ar 12.7593 6.37163 45.0935
144 1 Ar 10.4724 16.1786 3.59742
145 1 Ar 12.7792 13.0399 6.49726
146 1 Ar 36.5317 19.8962 3.50709
147 1 Ar 10.9843 31.6998 38.1752
148 1 Ar 20.8981 10.2069 16.765
149 1 Ar 31.011 10.1204 8.92196
150 1 Ar 4.3118 8.0608 22.4002
151 1 Ar 9.84265 7.50924 42.8295
152 1 Ar 25.9311 9.59748 41.1834
153 1 Ar 16.0983 17.4535 12.1666
154 1 Ar 12.9086 19.6074 13.1171
155 1 Ar 4.68229 38.381 4.86779
156 1 Ar 34.5692 31.3144 33.5996
157 1 Ar 30.8753 21.0727 23.8552
158 1 Ar 10.9557 10.092 45.3897
159 1 Ar 0.613536 23.0135 35.7973
160 1 Ar 27.5223 25.5614 9.48228
161 1 Ar 57.6055 27.4772 19.657
162 1 Ar 33.8115 15.8608 4.74802
163 1 Ar 28.807 9.85872 24.2363
164 1 Ar 32.6886 22.3742 21.2105
165 1 Ar 47.6179 23.0782 31.9282
166 1 Ar 12.6836 25.9476 38.9213
167 1 Ar 41.5135 27.4616 28.5423
168 1 Ar 10.4186 28.5041 44.7993
169 1 Ar 10.9476 19.1498 9.92739
170 1 Ar 30.8615 41.9278 41.0124
171 1 Ar 23.504 34.3427 36.7034
172 1 Ar 18.3902 39.3111 6.30348
173 1 Ar 42.3889 26.0925 25.2159
174 1 Ar 21.5075 18.0445 3.35556
175 1 Ar 12.9198 32.2995 45.2193
176 1 Ar 12.92 38.7592 58.1392
177 1 Ar 12.9019 38.5432 5.97729
178 1 Ar 8.71978 41.037 2.40169
179 1 Ar 0.732361 35.1694 44.2865
180 1 Ar 22.9133 40.1832 2.7099
181 1 Ar 12.8005 24.6618 33.9391
182 1 Ar 9.6656 43.0979 11.7681
183 1 Ar 33.1049 3.59521 21.4668
184 1 Ar 39.1841 5.50167 5.78228
185 1 Ar 35.4895 21.2987 13.6374
186 1 Ar 33.4888 2.70271 35.7268
187 1 Ar 12.9223 45.2169 19.3723
188 1 Ar 0.724562 2.71802 23.097
189 1 Ar 10.475 18.109 16.5253
190 1 Ar 56.1228 20.233 5.25632
191 1 Ar 13.8573 34.9219 6.39335
192 1 Ar 20.6937 54.8163 36.9233
193 1 Ar 23.285 15.1759 16.9626
194 1 Ar 23.8813 3.70896 56.0725
195 1 Ar 10.2664 15.2255 8.23293
196 1 Ar 51.9927 21.7833 9.60368
197 1 Ar 19.8723 0.93088 32.6382
198 1 Ar 21.3334 0.436295 39.7964
199 1 Ar 9.43149 55.9518 3.89768
200 1 Ar 19.3743 6.47571 0.0449617
201 1 Ar 19.3797 6.45989 6.45991
202 1 Ar 19.3796 6.45986 12.9199
203 1 Ar 19.4104 6.48946 19.3596
204 1 Ar 5.81538 9.68126 16.5891
205 1 Ar 29.9571 9.19145 20.3562
206 1 Ar 9.22697 1.82255 15.7811
207 1 Ar 42.1352 16.5634 2.07415
208 1 Ar 29.4069 16.6599 21.1971
209 1 Ar 19.3797 12.9198 6.45991
210 1 Ar 20.244 12.2395 12.7786
211 1 Ar 14.4087 42.9725 2.54128
212 1 Ar 32.7527 41.0639 37.0448
213 1 Ar 9.10941 21.9682 40.605
214 1 Ar 10.281 15.0491 13.1519
215 1 Ar 26.397 10.3674 13.7877
216 1 Ar 19.4005 19.3554 0.0754665
217 1 Ar 19.3797 19.3797 6.45997
218 1 Ar 19.2762 19.2518 12.64
219 1 Ar 41.8566 2.64093 5.75652
220 1 Ar 17.9851 42.4487 1.87736
221 1 Ar 56.783 45.3001 3.05133
222 1 Ar 11.8325 26.347 17.7195
223 1 Ar 13.3058 9.69738 31.1554
224 1 Ar 2.93038 41.8006 10.273
225 1 Ar 19.3089 25.7932 6.37617
226 1 Ar 19.3369 25.8048 12.9278
227 1 Ar 56.8544 21.5821 27.0348
228 1 Ar 54.0621 7.14691 34.4518
229 1 Ar 24.9819 56.7434 6.90081
230 1 Ar 34.664 41.1065 17.4283
231 1 Ar 14.1124 29.4535 40.1188
232 1 Ar 16.8238 7.46438 3.18943
233 1 Ar 7.61608 53.4566 16.9468
234 1 Ar 27.971 33.521 41.1191
235 1 Ar 26.4025 16.8497 35.312
236 1 Ar 0.0261791 26.3857 23.8111
237 1 Ar 35.523 23.8253 19.3529
238 1 Ar 57.3606 29.2261 38.0581
239 1 Ar 4.97519 16.155 32.9376
240 1 Ar 19.7091 38.5119 0.203738
241 1 Ar 3.15632 25.2089 9.45197
242 1 Ar 28.623 18.9494 13.1198
243 1 Ar 14.5633 11.4174 35.1052
244 1 Ar 40.4727 30.3537 9.34412
245 1 Ar 9.56493 31.5743 43.235
246 1 Ar 23.1601 10.0877 12.9629
247 1 Ar 21.0638 20.7637 45.1875
248 1 Ar 9.68625 11.0014 13.4584
249 1 Ar 54.2574 14.2327 20.7917
250 1 Ar 4.55064 24.9187 41.4611
251 1 Ar 0.290546 16.2843 12.6218
252 1 Ar 35.4005 54.9874 17.5993
253 1 Ar 17.5047 4.99754 43.6289
254 1 Ar 23.8509 22.7687 46.5883
255 1 Ar 16.6576 14.5252 14.5149
256 1 Ar 35.3181 29.7464 40.4625
257 1 Ar 54.7376 2.59751 22.9883
258 1 Ar 12.8377 6.06521 3.26186
259 1 Ar 25.8397 8.64764e-05 19.3797
260 1 Ar 24.9904 2.4321 22.7181
261 1 Ar 1.89817 20.6241 28.8968
262 1 Ar 9.80343 47.0168 16.3818
263 1 Ar 45.7269 57.4752 9.95209
264 1 Ar 25.8386 6.46001 0.00342785
265 1 Ar 25.8399 6.46017 6.46018
266 1 Ar 8.38898 27.6702 41.5257
267 1 Ar 25.7269 5.93938 19.1827
268 1 Ar 29.5095 5.39099 8.56743
269 1 Ar 3.60581 1.38385 27.6866
270 1 Ar 25.8076 6.47057 38.7939
271 1 Ar 37.786 27.5897 21.1399
272 1 Ar 31.4736 30.6399 28.8991
273 1 Ar 27.092 10.7941 8.70396
274 1 Ar 16.5593 3.94396 19.3151
275 1 Ar 16.3132 33.5392 2.74847
276 1 Ar 38.821 16.1282 12.978
277 1 Ar 15.5056 15.9119 6.96929
278 1 Ar 25.849 12.9218 38.7576
279 1 Ar 7.90021 16.1365 54.4438
280 1 Ar 52.8189 23.0016 34.6159
281 1 Ar 51.1327 5.98648 32.1581
282 1 Ar 24.0307 20.3378 12.654
283 1 Ar 25.8418 19.3796 19.3811
284 1 Ar 18.4413 18.506 16.2356
285 1 Ar 25.8426 19.3605 32.2925
286 1 Ar 33.2679 29.0125 36.1513
287 1 Ar 25.8028 19.4044 45.2394
288 1 Ar 44.9669 5.56344 13.6658
289 1 Ar 24.3698 2.62603 33.4824
290 1 Ar 25.808 25.8443 12.9291
291 1 Ar 25.6411 26.0886 19.4515
292 1 Ar 26.9055 22.8045 30.9767
293 1 Ar 2.03899 42.0132 5.85522
294 1 Ar 35.0209 36.5009 20.8556
295 1 Ar 44.6459 13.5975 14.9253
296 1 Ar 40.4469 3.57266 16.6429
297 1 Ar 51.6022 22.1966 13.3513
298 1 Ar 34.3553 21.9732 10.2778
299 1 Ar 9.78462 48.0573 57.2148
300 1 Ar 24.5449 28.7815 22.8354
301 1 Ar 28.6691 19.3604 28.4921
302 1 Ar 20.6203 2.43449 8.0426
303 1 Ar 25.5981 15.9212 29.8092
304 1 Ar 28.2272 7.45849 13.4329
305 1 Ar 24.9242 6.7335 14.2121
306 1 Ar 4.91828 8.7523 32.8472
307 1 Ar 16.3247 11.6995 50.1767
308 1 Ar 26.758 10.903 21.0999
309 1 Ar 18.27 10.3794 19.1885
310 1 Ar 25.9807 38.7308 38.7183
311 1 Ar 30.7891 26.2037 35.3051
312 1 Ar 16.695 17.9883 4.43046
313 1 Ar 14.4375 44.0547 23.8437
314 1 Ar 56.8587 14.0001 16.12
315 1 Ar 20.8501 13.7824 29.7491
316 1 Ar 3.54622 45.1224 4.32105
317 1 Ar 46.262 19.6705 23.0118
318 1 Ar 31.234 12.4831 6.32837
319 1 Ar 32.6552 40.1451 47.7382
320 1 Ar 25.009 26.2723 44.9716
321 1 Ar 33.2039 0.5787 15.7357
322 1 Ar 37.8716 26.5558 37.2341
323 1 Ar 32.3006 0.00279084 19.3681
324 1 Ar 56.3587 2.25937 26.5438
325 1 Ar 7.08696 48.7286 14.2161
326 1 Ar 13.9882 18.233 16.0597
327 1 Ar 25.1601 13.7328 33.2341
328 1 Ar 13.9681 13.3589 38.473
329 1 Ar 38.2436 17.4482 9.76798
330 1 Ar 32.0789 6.44113 12.9729
331 1 Ar 32.3055 6.46002 19.3836
332 1 Ar 25.3408 30.819 15.0075
333 1 Ar 6.39557 18.8336 5.45477
334 1 Ar 14.0093 53.8209 15.7818
335 1 Ar 37.5702 26.8436 41.3824
336 1 Ar 27.0448 13.576 42.5477
337 1 Ar 45.9496 42.3483 35.7422
338 1 Ar 32.4322 13.5643 12.2941
339 1 Ar 32.0118 12.8729 19.1276
340 1 Ar 32.3066 12.7442 26.051
341 1 Ar 32.302 12.922 32.298
342 1 Ar 5.03983 18.1158 36.1892
343 1 Ar 35.4028 39.9902 45.3664
344 1 Ar 2.20699 3.55758 15.9884
345 1 Ar 32.3038 19.3751 6.52514
346 1 Ar 32.2996 19.3797 12.9198
347 1 Ar 9.82805 8.20989 4.50158
348 1 Ar 27.3056 35.5505 37.3894
349 1 Ar 30.255 15.4691 28.3117
350 1 Ar 32.287 18.1612 39.9572
351 1 Ar 36.2894 11.3362 16.0061
352 1 Ar 54.5983 31.2066 45.9559
353 1 Ar 4.00011 51.5423 16.2246
354 1 Ar 32.7228 26.5866 12.4522
355 1 Ar 27.444 26.7458 24.9603
356 1 Ar 38.9548 29.9254 31.1829
357 1 Ar 13.5701 15.0054 11.0258
358 1 Ar 10.1995 5.71225 16.4179
359 1 Ar 41.8238 16.2365 23.9249
360 1 Ar 34.8683 8.24726 26.5929
361 1 Ar 29.2823 32.7343 32.8571
362 1 Ar 14.6788 14.0412 2.65541
363 1 Ar 42.9421 23.3134 33.9464
364 1 Ar 32.3244 32.2774 25.7822
365 1 Ar 54.157 19.6782 35.4683
366 1 Ar 32.3006 32.2911 38.7849
367 1 Ar 7.64388 56.3342 9.29271
368 1 Ar 56.3819 19.8139 9.22006
369 1 Ar 23.161 27.679 35.0511
370 1 Ar 30.9247 24.4353 40.9587
371 1 Ar 32.3034 38.7559 19.3911
372 1 Ar 33.2539 37.1247 24.9512
373 1 Ar 32.2481 38.7113 32.3356
374 1 Ar 25.7442 22.4008 15.4253
375 1 Ar 31.6247 38.9916 44.3958
376 1 Ar 17.7293 53.9983 34.3279
377 1 Ar 2.3085 29.6727 19.0346
378 1 Ar 15.3317 10.462 7.40806
379 1 Ar 35.3785 15.4516 12.3923
380 1 Ar 16.3078 25.7308 9.4166
381 1 Ar 4.27358 36.531 40.1476
382 1 Ar 34.5923 11.7035 8.03096
383 1 Ar 36.8867 32.2645 22.3535
384 1 Ar 7.35357 22.1137 36.3818
385 1 Ar 23.0312 14.3125 26.4454
386 1 Ar 34.8517 17.0004 17.1651
387 1 Ar 54.7431 10.0994 21.6706
388 1 Ar 16.4305 1.61113 3.83808
389 1 Ar 4.62498 57.6021 35.0892
390 1 Ar 32.9856 3.85305 16.8559
391 1 Ar 0.761825 12.584 31.179
392 1 Ar 0.500728 16.3073 29.789
393 1 Ar 36.064 30.3462 15.449
394 1 Ar 38.8615 12.1688 10.2931
395 1 Ar 40.0846 7.56525 17.0019
396 1 Ar 21.5533 11.305 25.1084
397 1 Ar 8.14894 54.0586 12.483
398 1 Ar 41.4531 26.224 57.7669
399 1 Ar 48.3935 33.1385 28.9762
400 1 Ar 35.8822 36.5247 16.9134
401 1 Ar 19.6048 15.8394 9.38602
402 1 Ar 42.0341 17.2442 11.5824
403 1 Ar 38.4044 11.637 19.1822
404 1 Ar 38.599 13.3203 26.3146
405 1 Ar 36.6514 13.0236 30.9134
406 1 Ar 0.217131 9.6273 23.9845
407 1 Ar 56.0695 5.60992 21.5778
408 1 Ar 38.7595 19.3797 6.34248e-05
409 1 Ar 38.7729 19.3787 6.46436
410 1 Ar 38.7442 19.4048 12.9323
411 1 Ar 36.3967 20.6659 18.0097
412 1 Ar 38.7599 19.3801 25.84
413 1 Ar 38.8765 57.8361 15.7886
414 1 Ar 42.1257 23.4249 22.6538
415 1 Ar 5.69581 29.795 20.8546
416 1 Ar 16.0043 7.78357 17.8559
417 1 Ar 27.5264 23.2787 46.741
418 1 Ar 49.4353 37.9193 34.0298
419 1 Ar 32.5487 21.8469 16.7642
420 1 Ar 47.931 27.2718 3.05774
421 1 Ar 8.10986 29.8514 38.7497
422 1 Ar 23.218 8.09217 19.0251
423 1 Ar 23.7763 39.0921 56.6331
424 1 Ar 35.244 35.7116 27.9577
425 1 Ar 38.8165 32.3121 6.45853
426 1 Ar 38.8654 32.229 12.9869
427 1 Ar 12.4012 57.9101 14.6159
428 1 Ar 36.1147 31.5565 28.4693
429 1 Ar 21.3286 25.7405 32.6461
430 1 Ar 9.89631 34.8181 1.75254
431 1 Ar 21.2815 16.32 14.1135
432 1 Ar 15.0647 57.5508 9.03857
433 1 Ar 3.66394 32.1134 41.2093
434 1 Ar 3.57716 23.3349 32.7471
435 1 Ar 15.1642 5.46674 23.1528
436 1 Ar 14.3159 40.7435 9.44796
437 1 Ar 37.0939 29.9621 36.0683
438 1 Ar 23.0811 20.0511 6.73595
439 1 Ar 30.8436 17.2457 24.8412
440 1 Ar 38.4357 23.4561 23.6874
441 1 Ar 0.451542 18.5609 25.904
442 1 Ar 56.4495 16.9742 33.9409
443 1 Ar 55.6455 15.0501 24.831
444 1 Ar 34.723 29.7674 20.2419