ITEM: TIMESTEP
-1
ITEM: NUMBER OF ATOMS
500
ITEM: BOX BOUNDS pp pp pp
0 58.1392
0 58.1392
0 58.1392
ITEM: ATOMS id type element xu yu zu
0 1 Ar 0 0 0
1 1 Ar 0 0 6.45991
2 1 Ar 0 0 12.9198
3 1 Ar 0 0 19.3797
4 1 Ar 0 0 25.8396
5 1 Ar 0 0 32.2995
6 1 Ar 0 0 38.7595
7 1 Ar 0 0 45.2194
8 1 Ar 0 6.45991 0
9 1 Ar 0 6.45991 6.45991
10 1 Ar 0 6.45991 12.9198
11 1 Ar 0 6.45991 19.3797
12 1 Ar 0 6.45991 25.8396
13 1 Ar 0 6.45991 32.2995
14 1 Ar 0 6.45991 38.7595
15 1 Ar 0 6.45991 45.2194
16 1 Ar 0 12.9198 0
17 1 Ar 0 12.9198 6.45991
18 1 Ar 0 12.9198 12.9198
19 1 Ar 0 12.9198 19.3797
20 1 Ar 0 12.9198 25.8396
21 1 Ar 0 12.9198 32.2995
22 1 Ar 0 12.9198 38.7595
23 1 Ar 0 12.9198 45.2194
24 1 Ar 0 19.3797 0
25 1 Ar 0 19.3797 6.45991
26 1 Ar 0 19.3797 12.9198
27 1 Ar 0 19.3797 19.3797
28 1 Ar 0 19.3797 25.8396
29 1 Ar 0 19.3797 32.2995
30 1 Ar 0 19.3797 38.7595
31 1 Ar 0 19.3797 45.2194
32 1 Ar 0 25.8396 0
33 1 Ar 0 25.8396 6.45991
34 1 Ar 0 25.8396 12.9198
35 1 Ar 0 25.8396 19.3797
36 1 Ar 0 25.8396 25.8396
37 1 Ar 0 25.8396 32.2995
38 1 Ar 0 25.8396 38.7595
39 1 Ar 0 25.8396 45.2194
40 1 Ar 0 32.2995 0
41 1 Ar 0 32.2995 6.45991
42 1 Ar 0 32.2995 12.9198
43 1 Ar 0 32.2995 19.3797
44 1 Ar 0 32.2995 25.8396
45 1 Ar 0 32.2995 32.2995
46 1 Ar 0 32.2995 38.7595
47 1 Ar 0 32.2995 45.2194
48 1 Ar 0 38.7595 0
49 1 Ar 0 38.7595 6.45991
50 1 Ar 0 38.7595 12.9198
51 1 Ar 0 38.7595 19.3797
52 1 Ar 0 38.7595 25.8396
53 1 Ar 0 38.7595 32.2995
54 1 Ar 0 38.7595 38.7595
55 1 Ar 0 38.7595 45.2194
56 1 Ar 0 45.2194 0
57 1 Ar 0 45.2194 6.45991
58 1 Ar 0 45.2194 12.9198
59 1 Ar 0 45.2194 19.3797
60 1 Ar 0 45.2194 25.8396
61 1 Ar 0 45.2194 32.2995
62 1 Ar 0 45.2194 38.7595
63 1 Ar 0 45.2194 45.2194
64 1 Ar 6.45991 0 0
65 1 Ar 6.45991 0 6.45991
66 1 Ar 6.45991 0 12.9198
67 1 Ar 6.45991 0 19.3797
68 1 Ar 6.45991 0 25.8396
69 1 Ar 6.45991 0 32.2995
70 1 Ar 6.45991 0 38.7595
71 1 Ar 6.45991 0 45.2194
72 1 Ar 6.45991 6.45991 0
73 1 Ar 6.45991 6.45991 6.45991
74 1 Ar 6.45991 6.45991 12.9198
75 1 Ar 6.45991 6.45991 19.3797
76 1 Ar 6.45991 6.45991 25.8396
77 1 Ar 6.45991 6.45991 32.2995
78 1 Ar 6.45991 6.45991 38.7595
79 1 Ar 6.45991 6.45991 45.2194
80 1 Ar 6.45991 12.9198 0
81 1 Ar 6.45991 12.9198 6.45991
82 1 Ar 6.45991 12.9198 12.9198
83 1 Ar 6.45991 12.9198 19.3797
84 1 Ar 6.45991 12.9198 25.8396
85 1 Ar 6.45991 12.9198 32.2995
86 1 Ar 6.45991 12.9198 38.7595
87 1 Ar 6.45991 12.9198 45.2194
88 1 Ar 6.45991 19.3797 0
89 1 Ar 6.45991 19.3797 6.45991
90 1 Ar 6.45991 19.3797 12.9198
91 1 Ar 6.45991 19.3797 19.3797
92 1 Ar 6.45991 19.3797 25.8396
93 1 Ar 6.45991 19.3797 32.2995
94 1 Ar 6.45991 19.3797 38.7595
95 1 Ar 6.45991 19.3797 45.2194
96 1 Ar 6.45991 25.8396 0
97 1 Ar 6.45991 25.8396 6.45991
98 1 Ar 6.45991 25.8396 12.9198
99 1 Ar 6.45991 25.8396 19.3797
100 1 Ar 6.45991 25.8396 25.8396
101 1 Ar 6.45991 25.8396 32.2995
102 1 Ar 6.45991 25.8396 38.7595
103 1 Ar 6.45991 25.8396 45.2194
104 1 Ar 6.45991 32.2995 0
105 1 Ar 6.45991 32.2995 6.45991
106 1 Ar 6.45991 32.2995 12.9198
107 1 Ar 6.45991 32.2995 19.3797
108 1 Ar 6.45991 32.2995 25.8396
109 1 Ar 6.45991 32.2995 32.2995
110 1 Ar 6.45991 32.2995 38.7595
111 1 Ar 6.45991 32.2995 45.2194
112 1 Ar 6.45991 38.7595 0
113 1 Ar 6.45991 38.7595 6.45991
114 1 Ar 6.45991 38.7595 12.9198
115 1 Ar 6.45991 38.7595 19.3797
116 1 Ar 6.45991 38.7595 25.8396
117 1 Ar 6.45991 38.7595 32.2995
118 1 Ar 6.45991 38.7595 38.7595
119 1 Ar 6.45991 38.7595 45.2194
120 1 Ar 6.45991 45.2194 0
121 1 Ar 6.45991 45.2194 6.45991
122 1 Ar 6.45991 45.2194 12.9198
123 1 Ar 6.45991 45.2194 19.3797
124 1 Ar 6.45991 45.2194 25.8396
125 1 Ar 6.45991 45.2194 32.2995
126 1 Ar 6.45991 45.2194 38.7595
127 1 Ar 6.45991 45.2194 45.2194
128 1 Ar 12.9198 0 0
129 1 Ar 12.9198 0 6.45991
130 1 Ar 12.9198 0 12.9198
131 1 Ar 12.9198 0 19.3797
132 1 Ar 12.9198 0 25.8396
133 1 Ar 12.9198 0 32.2995
134 1 Ar 12.9198 0 38.7595
135 1 Ar 12.9198 0 45.2194
136 1 Ar 12.9198 6.45991 0
137 1 Ar 12.9198 6.45991 6.45991
138 1 Ar 12.9198 6.45991 12.9198
139 1 Ar 12.9198 6.45991 19.3797
140 1 Ar 12.9198 6.45991 25.8396
141 1 Ar 12.9198 6.45991 32.2995
142 1 Ar 12.9198 6.45991 38.7595
143 1 Ar 12.9198 6.45991 45.2194
144 1 Ar 12.9198 12.9198 0
145 1 Ar 12.9198 12.9198 6.45991
146 1 Ar 12.9198 12.9198 12.9198
147 1 Ar 12.9198 12.9198 19.3797
148 1 Ar 12.9198 12.9198 25.8396
149 1 Ar 12.9198 12.9198 32.2995
150 1 Ar 12.9198 12.9198 38.7595
151 1 Ar 12.9198 12.9198 45.2194
152 1 Ar 12.9198 19.3797 0
153 1 Ar 12.9198 19.3797 6.45991
154 1 Ar 12.9198 19.3797 12.9198
155 1 Ar 12.9198 19.3797 19.3797
156 1 Ar 12.9198 19.3797 25.8396
157 1 Ar 12.9198 19.3797 32.2995
158 1 Ar 12.9198 19.3797 38.7595
159 1 Ar 12.9198 19.3797 45.2194
160 1 Ar 12.9198 25.8396 0
161 1 Ar 12.9198 25.8396 6.45991
162 1 Ar 12.9198 25.8396 12.9198
163 1 Ar 12.9198 25.8396 19.3797
164 1 Ar 12.9198 25.8396 25.8396
165 1 Ar 12.9198 25.8396 32.2995
166 1 Ar 12.9198 25.8396 38.7595
167 1 Ar 12.9198 25.8396 45.2194
168 1 Ar 12.9198 32.2995 0
169 1 Ar 12.9198 32.2995 6.45991
170 1 Ar 12.9198 32.2995 12.9198
171 1 Ar 12.9198 32.2995 19.3797
172 1 Ar 12.9198 32.2995 25.8396
173 1 Ar 12.9198 32.2995 32.2995
174 1 Ar 12.9198 32.2995 38.7595
175 1 Ar 12.9198 32.2995 45.2194
176 1 Ar 12.9198 38.7595 0
177 1 Ar 12.9198 38.7595 6.45991
178 1 Ar 12.9198 38.7595 12.9198
179 1 Ar 12.9198 38.7595 19.3797
180 1 Ar 12.9198 38.7595 25.8396
181 1 Ar 12.9198 38.7595 32.2995
182 1 Ar 12.9198 38.7595 38.7595
183 1 Ar 12.9198 38.7595 45.2194
184 1 Ar 12.9198 45.2194 0
185 1 Ar 12.9198 45.2194 6.45991
186 1 Ar 12.9198 45.2194 12.9198
187 1 Ar 12.9198 45.2194 19.3797
188 1 Ar 12.9198 45.2194 25.8396
189 1 Ar 12.9198 45.2194 32.2995
190 1 Ar 12.9198 45.2194 38.7595
191 1 Ar 12.9198 45.2194 45.2194
192 1 Ar 19.3797 0 0
193 1 Ar 19.3797 0 6.45991
194 1 Ar 19.3797 0 12.9198
195 1 Ar 19.3797 0 19.3797
196 1 Ar 19.3797 0 25.8396
197 1 Ar 19.3797 0 32.2995
198 1 Ar 19.3797 0 38.7595
199 1 Ar 19.3797 0 45.2194
200 1 Ar 19.3797 6.45991 0
201 1 Ar 19.3797 6.45991 6.45991
202 1 Ar 19.3797 6.45991 12.9198
203 1 Ar 19.3797 6.45991 19.3797
204 1 Ar 19.3797 6.45991 25.8396
205 1 Ar 19.3797 6.45991 32.2995
206 1 Ar 19.3797 6.45991 38.7595
207 1 Ar 19.3797 6.45991 45.2194
208 1 Ar 19.3797 12.9198 0
209 1 Ar 19.3797 12.9198 6.45991
210 1 Ar 19.3797 12.9198 12.9198
211 1 Ar 19.3797 12.9198 19.3797
212 1 Ar 19.3797 12.9198 25.8396
213 1 Ar 19.3797 12.9198 32.2995
214 1 Ar 19.3797 12.9198 38.7595
215 1 Ar 19.3797 12.9198 45.2194
216 1 Ar 19.3797 19.3797 0
217 1 Ar 19.3797 19.3797 6.45991
218 1 Ar 19.3797 19.3797 12.9198
219 1 Ar 19.3797 19.3797 19.3797
220 1 Ar 19.3797 19.3797 25.8396
221 1 Ar 19.3797 19.3797 32.2995
222 1 Ar 19.3797 19.3797 38.7595
223 1 Ar 19.3797 19.3797 45.2194
224 1 Ar 19.3797 25.8396 0
225 1 Ar 19.3797 25.8396 6.45991
226 1 Ar 19.3797 25.8396 12.9198
227 1 Ar 19.3797 25.8396 19.3797
228 1 Ar 19.3797 25.8396 25.8396
229 1 Ar 19.3797 25.8396 32.2995
230 1 Ar 19.3797 25.8396 38.7595
231 1 Ar 19.3797 25.8396 45.2194
232 1 Ar 19.3797 32.2995 0
233 1 Ar 19.3797 32.2995 6.45991
234 1 Ar 19.3797 32.2995 12.9198
235 1 Ar 19.3797 32.2995 19.3797
236 1 Ar 19.3797 32.2995 25.8396
237 1 Ar 19.3797 32.2995 32.2995
238 1 Ar 19.3797 32.2995 38.7595
239 1 Ar 19.3797 32.2995 45.2194
240 1 Ar 19.3797 38.7595 0
241 1 Ar 19.3797 38.7595 6.45991
242 1 Ar 19.3797 38.7595 12.9198
243 1 Ar 19.3797 38.7595 19.3797
244 1 Ar 19.3797 38.7595 25.8396
245 1 Ar 19.3797 38.7595 32.2995
246 1 Ar 19.3797 38.7595 38.7595
247 1 Ar 19.3797 38.7595 45.2194
248 1 Ar 19.3797 45.2194 0
249 1 Ar 19.3797 45.2194 6.45991
250 1 Ar 19.3797 45.2194 12.9198
251 1 Ar 19.3797 45.2194 19.3797
252 1 Ar 19.3797 45.2194 25.8396
253 1 Ar 19.3797 45.2194 32.2995
254 1 Ar 19.3797 45.2194 38.7595
255 1 Ar 19.3797 45.2194 45.2194
256 1 Ar 25.8396 0 0
257 1 Ar 25.8396 0 6.45991
258 1 Ar 25.8396 0 12.9198
259 1 Ar 25.8396 0 19.3797
260 1 Ar 25.8396 0 25.8396
261 1 Ar 25.8396 0 32.2995
262 1 Ar 25.8396 0 38.7595
263 1 Ar 25.8396 0 45.2194
264 1 Ar 25.8396 6.45991 0
265 1 Ar 25.8396 6.45991 6.45991
266 1 Ar 25.8396 6.45991 12.9198
267 1 Ar 25.8396 6.45991 19.3797
268 1 Ar 25.8396 6.45991 25.8396
269 1 Ar 25.8396 6.45991 32.2995
270 1 Ar 25.8396 6.45991 38.7595
271 1 Ar 25.8396 6.45991 45.2194
272 1 Ar 25.8396 12.9198 0
273 1 Ar 25.8396 12.9198 6.45991
274 1 Ar 25.8396 12.9198 12.9198
275 1 Ar 25.8396 12.9198 19.3797
276 1 Ar 25.8396 12.9198 25.8396
277 1 Ar 25.8396 12.9198 32.2995
278 1 Ar 25.8396 12.9198 38.7595
279 1 Ar 25.8396 12.9198 45.2194
280 1 Ar 25.8396 19.3797 0
281 1 Ar 25.8396 19.3797 6.45991
282 1 Ar 25.8396 19.3797 12.9198
283 1 Ar 25.8396 19.3797 19.3797
284 1 Ar 25.8396 19.3797 25.8396
285 1 Ar 25.8396 19.3797 32.2995
286 1 Ar 25.8396 19.3797 38.7595
287 1 Ar 25.8396 19.3797 45.2194
288 1 Ar 25.8396 25.8396 0
289 1 Ar 25.8396 25.8396 6.45991
290 1 Ar 25.8396 25.8396 12.9198
291 1 Ar 25.8396 25.8396 19.3797
292 1 Ar 25.8396 25.8396 25.8396
293 1 Ar 25.8396 25.8396 32.2995
294 1 Ar 25.8396 25.8396 38.7595
295 1 Ar 25.8396 25.8396 45.2194
296 1 Ar 25.8396 32.2995 0
297 1 Ar 25.8396 32.2995 6.45991
298 1 Ar 25.8396 32.2995 12.9198
299 1 Ar 25.8396 32.2995 19.3797
300 1 Ar 25.8396 32.2995 25.8396
301 1 Ar 25.8396 32.2995 32.2995
302 1 Ar 25.8396 32.2995 38.7595
303 1 Ar 25.8396 32.2995 45.2194
304 1 Ar 25.8396 38.7595 0
305 1 Ar 25.8396 38.7595 6.45991
306 1 Ar 25.8396 38.7595 12.9198
307 1 Ar 25.8396 38.7595 19.3797
308 1 Ar 25.8396 38.7595 25.8396
309 1 Ar 25.8396 38.7595 32.2995
310 1 Ar 25.8396 38.7595 38.7595
311 1 Ar 25.8396 38.7595 45.2194
312 1 Ar 25.8396 45.2194 0
313 1 Ar 25.8396 45.2194 6.45991
314 1 Ar 25.8396 45.2194 12.9198
315 1 Ar 25.8396 45.2194 19.3797
316 1 Ar 25.8396 45.2194 25.8396
317 1 Ar 25.8396 45.2194 32.2995
318 1 Ar 25.8396 45.2194 38.7595
319 1 Ar 25.8396 45.2194 45.2194
320 1 Ar 32.2995 0 0
321 1 Ar 32.2995 0 6.45991
322 1 Ar 32.2995 0 12.9198
323 1 Ar 32.2995 0 19.3797
324 1 Ar 32.2995 0 25.8396
325 1 Ar 32.2995 0 32.2995
326 1 Ar 32.2995 0 38.7595
327 1 Ar 32.2995 0 45.2194
328 1 Ar 32.2995 6.45991 0
329 1 Ar 32.2995 6.45991 6.45991
330 1 Ar 32.2995 6.45991 12.9198
331 1 Ar 32.2995 6.45991 19.3797
332 1 Ar 32.2995 6.45991 25.8396
333 1 Ar 32.2995 6.45991 32.2995
334 1 Ar 32.2995 6.45991 38.7595
335 1 Ar 32.2995 6.45991 45.2194
336 1 Ar 32.2995 12.9198 0
337 1 Ar 32.2995 12.9198 6.45991
338 1 Ar 32.2995 12.9198 12.9198
339 1 Ar 32.2995 12.9198 19.3797
340 1 Ar 32.2995 12.9198 25.8396
341 1 Ar 32.2995 12.9198 32.2995
342 1 Ar 32.2995 12.9198 38.7595
343 1 Ar 32.2995 12.9198 45.2194
344 1 Ar 32.2995 19.3797 0
345 1 Ar 32.2995 19.3797 6.45991
346 1 Ar 32.2995 19.3797 12.9198
347 1 Ar 32.2995 19.3797 19.3797
348 1 Ar 32.2995 19.3797 25.8396
349 1 Ar 32.2995 19.3797 32.2995
350 1 Ar 32.2995 19.3797 38.7595
351 1 Ar 32.2995 19.3797 45.2194
352 1 Ar 32.2995 25.8396 0
353 1 Ar 32.2995 25.8396 6.45991
354 1 Ar 32.2995 25.8396 12.9198
355 1 Ar 32.2995 25.8396 19.3797
356 1 Ar 32.2995 25.8396 25.8396
357 1 Ar 32.2995 25.8396 32.2995
358 1 Ar 32.2995 25.8396 38.7595
359 1 Ar 32.2995 25.8396 45.2194
360 1 Ar 32.2995 32.2995 0
361 1 Ar 32.2995 32.2995 6.45991
362 1 Ar 32.2995 32.2995 12.9198
363 1 Ar 32.2995 32.2995 19.3797
364 1 Ar 32.2995 32.2995 25.8396
365 1 Ar 32.2995 32.2995 32.2995
366 1 Ar 32.2995 32.2995 38.7595
367 1 Ar 32.2995 32.2995 45.2194
368 1 Ar 32.2995 38.7595 0
369 1 Ar 32.2995 38.7595 6.45991
370 1 Ar 32.2995 38.7595 12.9198
371 1 Ar 32.2995 38.7595 19.3797
372 1 Ar 32.2995 38.7595 25.8396
373 1 Ar 32.2995 38.7595 32.2995
374 1 Ar 32.2995 38.7595 38.7595
375 1 Ar 32.2995 38.7595 45.2194
376 1 Ar 32.2995 45.2194 0
377 1 Ar 32.2995 45.2194 6.45991
378 1 Ar 32.2995 45.2194 12.9198
379 1 Ar 32.2995 45.2194 19.3797
380 1 Ar 32.2995 45.2194 25.8396
381 1 Ar 32.2995 45.2194 32.2995
382 1 Ar 32.2995 45.2194 38.7595
383 1 Ar 32.2995 45.2194 45.2194
384 1 Ar 38.7595 0 0
385 1 Ar 38.7595 0 6.45991
386 1 Ar 38.7595 0 12.9198
387 1 Ar 38.7595 0 19.3797
388 1 Ar 38.7595 0 25.8396
389 1 Ar 38.7595 0 32.2995
390 1 Ar 38.7595 0 38.7595
391 1 Ar 38.7595 0 45.2194
392 1 Ar 38.7595 6.45991 0
393 1 Ar 38.7595 6.45991 6.45991
394 1 Ar 38.7595 6.45991 12.9198
395 1 Ar 38.7595 6.45991 19.3797
396 1 Ar 38.7595 6.45991 25.8396
397 1 Ar 38.7595 6.45991 32.2995
398 1 Ar 38.7595 6.45991 38.7595
399 1 Ar 38.7595 6.45991 45.2194
400 1 Ar 38.7595 12.9198 0
401 1 Ar 38.7595 12.9198 6.45991
402 1 Ar 38.7595 12.9198 12.9198
403 1 Ar 38.7595 12.9198 19.3797
404 1 Ar 38.7595 12.9198 25.8396
405 1 Ar 38.7595 12.9198 32.2995
406 1 Ar 38.7595 12.9198 38.7595
407 1 Ar 38.7595 12.9198 45.2194
408 1 Ar 38.7595 19.3797 0
409 1 Ar 38.7595 19.3797 6.45991
410 1 Ar 38.7595 19.3797 12.9198
411 1 Ar 38.7595 19.3797 19.3797
412 1 Ar 38.7595 19.3797 25.8396
413 1 Ar 38.7595 19.3797 32.2995
414 1 Ar 38.7595 19.3797 38.7595
415 1 Ar 38.7595 19.3797 45.2194
416 1 Ar 38.7595 25.8396 0
417 1 Ar 38.7595 25.8396 6.45991
418 1 Ar 38.7595 25.8396 12.9198
419 1 Ar 38.7595 25.8396 19.3797
420 1 Ar 38.7595 25.8396 25.8396
421 1 Ar 38.7595 25.8396 32.2995
422 1 Ar 38.7595 25.8396 38.7595
423 1 Ar 38.7595 25.8396 45.2194
424 1 Ar 38.7595 32.2995 0
425 1 Ar 38.7595 32.2995 6.45991
426 1 Ar 38.7595 32.2995 12.9198
427 1 Ar 38.7595 32.2995 19.3797
428 1 Ar 38.7595 32.2995 25.8396
429 1 Ar 38.7595 32.2995 32.2995
430 1 Ar 38.7595 32.2995 38.7595
431 1 Ar 38.7595 32.2995 45.2194
432 1 Ar 38.7595 38.7595 0
433 1 Ar 38.7595 38.7595 6.45991
434 1 Ar 38.7595 38.7595 12.9198
435 1 Ar 38.7595 38.7595 19.3797
436 1 Ar 38.7595 38.7595 25.8396
437 1 Ar 38.7595 38.7595 32.2995
438 1 Ar 38.7595 38.7595 38.7595
439 1 Ar 38.7595 38.7595 45.2194
440 1 Ar 38.7595 45.2194 0
441 1 Ar 38.7595 45.2194 6.45991
442 1 Ar 38.7595 45.2194 12.9198
443 1 Ar 38.7595 45.2194 19.3797
444 1 Ar 38.7595 45.2194 25.8396
445 1 Ar 38.7595 45.2194 32.2995
446 1 Ar 38.7595 45.2194 38.7595
447 1 Ar 38.7595 45.2194 45.2194
448 1 Ar 45.2194 0 0
449 1 Ar 45.2194 0 6.45991
450 1 Ar 45.2194 0 12.9198
451 1 Ar 45.2194 0 19.3797
452 1 Ar 45.2194 0 25.8396
453 1 Ar 45.2194 0 32.2995
454 1 Ar 45.2194 0 38.7595
455 1 Ar 45.2194 0 45.2194
456 1 Ar 45.2194 6.45991 0
457 1 Ar 45.2194 6.45991 6.45991
458 1 Ar 45.2194 6.45991 12.9198
459 1 Ar 45.2194 6.45991 19.3797
460 1 Ar 45.2194 6.45991 25.8396
461 1 Ar 45.2194 6.45991 32.2995
462 1 Ar 45.2194 6.45991 38.7595
463 1 Ar 45.2194 6.45991 45.2194
464 1 Ar 45.2194 12.9198 0
465 1 Ar 45.2194 12.9198 6.45991
466 1 Ar 45.2194 12.9198 12.9198
467 1 Ar 45.2194 12.9198 19.3797
468 1 Ar 45.2194 12.9198 25.8396
469 1 Ar 45.2194 12.9198 32.2995
470 1 Ar 45.2194 12.9198 38.7595
471 1 Ar 45.2194 12.9198 45.2194
472 1 Ar 45.2194 19.3797 0
473 1 Ar 45.2194 19.3797 6.45991
474 1 Ar 45.2194 19.3797 12.9198
475 1 Ar 45.2194 19.3797 19.3797
476 1 Ar 45.2194 19.3797 25.8396
477 1 Ar 45.2194 19.3797 32.2995
478 1 Ar 45.2194 19.3797 38.7595
479 1 Ar 45.2194 19.3797 45.2194
480 1 Ar 45.2194 25.8396 0
481 1 Ar 45.2194 25.8396 6.45991
482 1 Ar 45.2194 25.8396 12.9198
483 1 Ar 45.2194 25.8396 19.3797
484 1 Ar 45.2194 25.8396 25.8396
485 1 Ar 45.2194 25.8396 32.2995
486 1 Ar 45.2194 25.8396 38.7595
487 1 Ar 45.2194 25.8396 45.2194
488 1 Ar 45.2194 32.2995 0
489 1 Ar 45.2194 32.2995 6.45991
490 1 Ar 45.2194 32.2995 12.9198
491 1 Ar 45.2194 32.2995 19.3797
492 1 Ar 45.2194 32.2995 25.8396
493 1 Ar 45.2194 32.2995 32.2995
494 1 Ar 45.2194 32.2995 38.7595
495 1 Ar 45.2194 32.2995 45.2194
496 1 Ar 45.2194 38.7595 0
497 1 Ar 45.2194 38.7595 6.45991
498 1 Ar 45.2194 38.7595 12.9198
499 1 Ar 45.2194 38.7595 19.3797
ITEM: TIMESTEP
19999
ITEM: NUMBER OF ATOMS
500
ITEM: BOX BOUNDS pp pp pp
0 58.1392
0 58.1392
0 58.1392
ITEM: ATOMS id type element xu yu zu
0 1 Ar 1.25144 13.3152 28.5609
1 1 Ar 2.53304 35.6415 32.8207
2 1 Ar 44.4211 27.707 38.2508
3 1 Ar 45.3982 9.62409 4.45642
4 1 Ar 2.47069 12.3683 12.3172
5 1 Ar 2.97166 42.3603 24.0102
6 1 Ar 51.9914 30.8799 53.6519
7 1 Ar 0.87192 50.2715 35.3643
8 1 Ar 27.4237 23.7033 17.2267
9 1 Ar 23.9224 15.6554 19.8064
10 1 Ar 2.64082 49.0357 52.2084
11 1 Ar 40.4321 14.9859 30.5289
12 1 Ar 47.945 47.1526 14.0429
13 1 Ar 27.8475 3.95676 19.3386
14 1 Ar 3.56345 55.5108 9.47165
15 1 Ar 1.92873 53.7276 34.9966
16 1 Ar 22.1727 30.3922 14.0495
17 1 Ar 47.1227 35.5683 53.5225
18 1 Ar 13.0135 35.3221 2.0103
19 1 Ar 20.8288 35.2589 21.8236
20 1 Ar 30.262 23.7912 19.5133
21 1 Ar 16.1111 31.4967 48.5052
22 1 Ar 37.786 8.12686 22.4551
23 1 Ar 22.1631 37.6105 18.9806
24 1 Ar 53.285 57.5742 53.4364
25 1 Ar 26.5054 36.4179 9.36156
26 1 Ar 29.5651 27.3178 34.9221
27 1 Ar 8.65675 54.1628 37.7407
28 1 Ar 7.42394 0.829473 10.9032
29 1 Ar 11.7061 33.2966 8.40602
30 1 Ar 48.734 8.19421 10.404
31 1 Ar 0.640765 53.5804 9.70121
32 1 Ar 43.1589 3.44984 1.46065
33 1 Ar 4.1938 52.0468 14.73
34 1 Ar 27.5282 39.9048 6.15709
35 1 Ar 27.6662 12.5413 19.9501
36 1 Ar 19.8379 8.47365 42.7068
37 1 Ar 23.4953 10.5944 0.148321
38 1 Ar 39.518 38.5727 13.8324
39 1 Ar 40.0515 2.18982 42.9859
40 1 Ar 41.4412 34.498 13.7294
41 1 Ar 38.8323 44.2729 49.9647
42 1 Ar 29.8632 32.8451 0.852179
43 1 Ar 44.8634 57.3869 5.01394
44 1 Ar 52.1653 1.94473 18.8796
45 1 Ar 17.2547 0.701508 30.5437
46 1 Ar 19.6228 22.6656 1.54535
47 1 Ar 50.2537 9.85549 18.0423
48 1 Ar 10.9835 54.2809 47.6047
49 1 Ar 57.2946 24.0522 11.8137
50 1 Ar 42.3012 30.9079 2.5905
51 1 Ar 45.2758 7.81149 56.7718
52 1 Ar 25.7856 52.0452 54.3799
53 1 Ar 14.5954 57.6589 1.67256
54 1 Ar 56.1089 31.9606 47.7092
55 1 Ar 4.75147 51.8218 48.3
56 1 Ar 34.6697 44.2902 48.4751
57 1 Ar 43.816 9.05288 53.4241
58 1 Ar 45.316 34.8252 41.9123
59 1 Ar 20.8729 18.9957 19.0281
60 1 Ar 13.7053 14.8713 27.6242
61 1 Ar 33.5504 21.431 19.2336
62 1 Ar 9.27492 2.31309 54.6505
63 1 Ar 25.9998 32.6484 12.9024
64 1 Ar 37.9834 29.359 16.3964
65 1 Ar 16.9494 47.9917 43.7529
66 1 Ar 5.0466 52.031 27.0981
67 1 Ar 18.9935 8.37891 7.24952
68 1 Ar 47.0312 6.21065 16.9846
69 1 Ar 17.5351 53.7523 52.3129
70 1 Ar 8.53608 37.2896 47.2119
71 1 Ar 50.0086 55.8166 8.75453
72 1 Ar 32.5536 52.1223 50.308
73 1 Ar 31.0051 33.2611 5.25001
74 1 Ar 8.31652 39.5166 12.4229
75 1 Ar 37.0425 45.6118 31.1892
76 1 Ar 34.6654 27.1372 33.1734
77 1 Ar 34.9099 42.0769 38.2721
78 1 Ar 13.2711 36.2944 32.3055
79 1 Ar 33.4901 36.3662 40.5498
80 1 Ar 2.77612 37.6247 57.6749
81 1 Ar 19.8462 47.3073 45.8913
82 1 Ar 55.5938 41.4288 51.02
83 1 Ar 50.4328 20.4225 27.146
84 1 Ar 55.1685 49.6835 9.2363
85 1 Ar 53.7892 31.4237 25.4016
86 1 Ar 15.2668 25.7721 36.5433
87 1 Ar 56.5391 51.2609 39.8795
88 1 Ar 17.5528 33.0803 24.5397
89 1 Ar 5.82162 7.17609 36.7511
90 1 Ar 39.8223 8.9787 43.7525
91 1 Ar 34.2253 12.2309 57.8963
92 1 Ar 26.0095 39.8318 45.004
93 1 Ar 37.2459 22.5684 16.9922
94 1 Ar 1.44292 45.6064 16.2773
95 1 Ar 35.6858 21.5545 3.86912
96 1 Ar 18.4233 46.7048 10.7856
97 1 Ar 53.1552 50.1521 13.7108
98 1 Ar 11.3615 20.4912 40.8337
99 1 Ar 25.3811 30.8557 39.4188
100 1 Ar 18.7662 26.3928 16.0236
101 1 Ar 25.4606 27.2571 53.7624
102 1 Ar 48.4594 13.8798 25.8547
103 1 Ar 13.6693 44.1558 47.2957
104 1 Ar 23.3658 6.02789 37.3494
105 1 Ar 47.8836 35.0724 10.1813
106 1 Ar 35.2617 15.9455 18.4171
107 1 Ar 12.2597 7.65468 21.1565
108 1 Ar 38.283 14.9938 16.2374
109 1 Ar 23.8475 30.9056 34.5043
110 1 Ar 7.60211 49.5883 51.612
111 1 Ar 43.5614 3.96901 50.0623
112 1 Ar 29.4218 44.0062 57.9736
113 1 Ar 26.1498 49.4974 41.5714
114 1 Ar 24.285 0.332427 33.675
115 1 Ar 26.5294 1.63254 5.86275
116 1 Ar 47.3744 43.6927 48.6223
117 1 Ar 40.8509 43.9161 43.1028
118 1 Ar 16.8197 45.567 7.40223
119 1 Ar 2.56596 3.92215 46.8238
120 1 Ar 51.5409 6.59434 21.3086
121 1 Ar 30.9878 44.0886 29.9115
122 1 Ar 36.0488 37.0184 43.1367
123 1 Ar 40.1704 21.9077 27.6045
124 1 Ar 4.51685 7.55026 44.579
125 1 Ar 52.935 30.4026 18.9909
126 1 Ar 19.7017 44.0164 13.3943
127 1 Ar 56.7946 9.14421 27.6186
128 1 Ar 7.52908 17.2662 55.6635
129 1 Ar 8.95859 42.617 23.2149
130 1 Ar 34.5138 42.4865 52.7797
131 1 Ar 46.7828 46.9814 42.9699
132 1 Ar 56.1059 45.0607 14.2573
133 1 Ar 31.4652 48.4567 33.7609
134 1 Ar 40.4352 9.29086 57.3171
135 1 Ar 11.3619 40.122 14.9014
136 1 Ar 19.3856 11.4982 52.774
137 1 Ar 48.4934 24.6392 23.4624
138 1 Ar 48.1663 28.156 33.193
139 1 Ar 13.2745 48.3995 27.215
140 1 Ar 10.8274 27.718 1.09396
141 1 Ar 31.1984 25.4195 57.1797
142 1 Ar 42.7046 31.8861 44.9055
143 1 Ar 38.1501 30.3767 40.7535
144 1 Ar 35.0001 2.45678 50.497
145 1 Ar 46.8488 4.26345 8.52817
146 1 Ar 36.2482 15.5973 30.0679
147 1 Ar 37.7687 23.414 6.54514
148 1 Ar 48.7021 48.1882 37.6018
149 1 Ar 40.9446 21.9805 5.05502
150 1 Ar 1.72833 46.4297 32.1823
151 1 Ar 18.1669 32.0043 12.9906
152 1 Ar 23.9916 46.2551 31.3933
153 1 Ar 48.9338 49.6399 45.7624
154 1 Ar 5.45579 3.51729 39.1146
155 1 Ar 38.9982 24.222 10.5173
156 1 Ar 34.1007 28.5374 55.0329
157 1 Ar 53.1937 28.1831 46.7015
158 1 Ar 48.3645 17.0293 23.7605
159 1 Ar 13.9366 25.1612 30.4164
160 1 Ar 13.941 42.2369 21.7707
161 1 Ar 45.9115 55.6698 41.4934
162 1 Ar 3.05051 24.9553 39.5243
163 1 Ar 31.7301 17.0337 42.0481
164 1 Ar 26.0267 10.2816 25.0041
165 1 Ar 40.4998 47.2694 39.5055
166 1 Ar 25.1897 57.1235 45.2976
167 1 Ar 52.7226 46.1024 13.1632
168 1 Ar 32.1518 46.6532 48.8057
169 1 Ar 35.1547 47.9561 43.118
170 1 Ar 54.8389 24.322 9.29119
171 1 Ar 0.31626 56.7117 31.4466
172 1 Ar 29.5953 35.2434 46.3933
173 1 Ar 51.6156 4.46071 28.0231
174 1 Ar 23.0311 4.75214 40.5998
175 1 Ar 6.75073 32.688 26.2376
176 1 Ar 38.0714 5.76872 11.3704
177 1 Ar 40.0045 16.7279 4.07083
178 1 Ar 35.3884 28.2434 1.54707
179 1 Ar 35.9106 38.3125 10.0932
180 1 Ar 15.146 34.1271 10.1262
181 1 Ar 33.6223 24.8362 17.3469
182 1 Ar 22.2825 49.6342 40.5338
183 1 Ar 21.3366 28.5507 24.7758
184 1 Ar 48.4062 41.5015 12.245
185 1 Ar 1.18881 23.8453 35.9033
186 1 Ar 3.31096 40.6643 18.8653
187 1 Ar 16.5194 8.08295 23.1104
188 1 Ar 30.1252 18.1873 45.964
189 1 Ar 13.9692 51.4543 25.2742
190 1 Ar 46.5803 29.5795 1.04499
191 1 Ar 51.2601 3.52734 24.1241
192 1 Ar 29.0001 27.2386 27.4026
193 1 Ar 23.2598 17.9312 1.29115
194 1 Ar 24.7149 19.0074 19.0732
195 1 Ar 42.5189 21.1508 48.0487
196 1 Ar 39.0429 14.2139 26.6145
197 1 Ar 47.9103 30.0876 13.0076
198 1 Ar 44.2665 8.39374 20.5051
199 1 Ar 11.4594 42.3798 25.6144
200 1 Ar 27.5235 22.3277 10.8669
201 1 Ar 8.29041 45.666 50.6383
202 1 Ar 53.2487 28.6141 34.5937
203 1 Ar 24.4723 1.14482 19.082
204 1 Ar 46.4602 23.0258 17.0895
205 1 Ar 2.52883 48.9097 13.6289
206 1 Ar 39.8214 27.6641 57.9275
207 1 Ar 21.0934 43.2177 4.44399
208 1 Ar 0.954712 29.4886 19.2072
209 1 Ar 31.0278 54.9014 16.3339
210 1 Ar 20.8557 45.1265 8.19495
211 1 Ar 29.1129 25.4558 49.6493
212 1 Ar 13.1499 47.7977 7.89247
213 1 Ar 29.8839 6.12466 9.18491
214 1 Ar 30.3211 27.2091 7.01519
215 1 Ar 41.1551 17.5282 44.7715
216 1 Ar 49.193 0.997348 46.8744
217 1 Ar 27.0975 18.7424 36.3446
218 1 Ar 27.2583 22.0095 33.8355
219 1 Ar 3.18383 2.81913 10.9746
220 1 Ar 20.6814 38.8273 56.6715
221 1 Ar 52.5433 31.9407 45.2007
222 1 Ar 48.4975 11.3349 14.6057
223 1 Ar 26.5801 34.0106 25.37
224 1 Ar 18.8963 30.8624 29.0038
225 1 Ar 27.5778 20.161 7.72213
226 1 Ar 17.1004 25.4729 4.54305
227 1 Ar 47.468 50.6877 9.66899
228 1 Ar 7.36769 39.2934 32.6147
229 1 Ar 29.3682 33.0956 29.7629
230 1 Ar 11.7521 50.3901 31.3878
231 1 Ar 9.68367 22.1944 46.5794
232 1 Ar 56.0768 2.48946 30.5843
233 1 Ar 57.248 45.4852 10.4284
234 1 Ar 25.9441 26.9527 12.277
235 1 Ar 54.1509 1.94056 22.6699
236 1 Ar 21.9847 45.3285 34.0467
237 1 Ar 24.2282 29.297 22.0256
238 1 Ar 46.2391 45.4256 52.1365
239 1 Ar 8.95505 5.20526 18.9397
240 1 Ar 6.85149 53.0806 8.54017
241 1 Ar 4.82668 17.4231 46.6625
242 1 Ar 17.8204 29.6589 42.0748
243 1 Ar 47.0147 2.2808 36.7942
244 1 Ar 31.724 32.8475 39.9574
245 1 Ar 37.8593 13.0941 20.3564
246 1 Ar 15.8867 7.15636 2.35191
247 1 Ar 40.8325 33.3646 41.1012
248 1 Ar 7.73028 2.9129 42.9358
249 1 Ar 13.8519 47.6689 34.2321
250 1 Ar 31.2586 18.4785 52.216
251 1 Ar 10.0886 49.2205 37.0292
252 1 Ar 27.6068 23.7142 6.88346
253 1 Ar 19.0977 25.7516 39.4786
254 1 Ar 19.5818 45.1947 38.8433
255 1 Ar 3.76945 25.4454 19.3037
256 1 Ar 50.8872 11.6212 5.19265
257 1 Ar 26.7269 29.8887 5.45074
258 1 Ar 32.8438 11.0795 22.2512
259 1 Ar 4.10581 28.8929 52.8321
260 1 Ar 4.80625 9.28577 51.3947
261 1 Ar 20.8488 16.9646 32.3838
262 1 Ar 45.8616 0.046235 56.8168
263 1 Ar 17.3161 17.1619 18.2763
264 1 Ar 27.7256 24.3694 56.2575
265 1 Ar 7.23751 34.6942 36.9426
266 1 Ar 20.1545 4.1374 18.1332
267 1 Ar 19.4049 34.8626 4.0117
268 1 Ar 26.299 3.70852 39.3858
269 1 Ar 15.9643 31.4856 18.8313
270 1 Ar 35.7148 17.642 39.1875
271 1 Ar 36.4331 47.5392 48.3414
272 1 Ar 39.9043 14.4902 35.9436
273 1 Ar 25.4961 57.1022 39.0594
274 1 Ar 32.7186 25.2497 53.2898
275 1 Ar 31.8176 47.0335 8.28648
276 1 Ar 15.6628 45.4377 50.5113
277 1 Ar 32.1653 51.1334 41.511
278 1 Ar 49.3185 53.4612 1.40808
279 1 Ar 53.2733 48.1408 39.5926
280 1 Ar 29.9036 29.9247 37.0013
281 1 Ar 52.8826 35.5129 41.9597
282 1 Ar 18.3912 11.1904 56.5956
283 1 Ar 16.6624 29.4399 9.21513
284 1 Ar 35.0573 31.6237 45.314
285 1 Ar 53.3515 5.46627 51.0324
286 1 Ar 48.7224 53.8616 41.7112
287 1 Ar 26.1636 25.7991 34.4563
288 1 Ar 37.0518 48.4357 6.24641
289 1 Ar 44.1511 24.6055 4.94923
290 1 Ar 26.2853 8.78492 55.276
291 1 Ar 41.6184 41.2741 49.5793
292 1 Ar 57.8501 43.9199 24.4637
293 1 Ar 32.823 39.8928 40.4704
294 1 Ar 28.7058 16.0841 27.5962
295 1 Ar 40.0711 53.2865 8.74938
296 1 Ar 56.1336 42.7229 7.3916
297 1 Ar 50.5917 16.7756 5.22949
298 1 Ar 31.8202 15.0733 53.5947
299 1 Ar 2.90488 52.6891 38.7847
300 1 Ar 23.8648 10.5757 46.6746
301 1 Ar 20.7587 30.3597 52.2802
302 1 Ar 40.4388 6.09201 52.6198
303 1 Ar 26.6255 39.8022 35.3734
304 1 Ar 36.9194 53.0194 42.0934
305 1 Ar 34.6501 25.442 4.3788
306 1 Ar 21.7635 16.3603 36.1787
307 1 Ar 27.728 35.9289 22.398
308 1 Ar 22.694 38.1921 22.6882
309 1 Ar 26.8214 19.8544 56.9834
310 1 Ar 33.55 40.019 46.7857
311 1 Ar 13.4273 44.1336 34.9202
312 1 Ar 28.7063 29.1757 22.9801
313 1 Ar 54.192 11.7723 7.35649
314 1 Ar 15.1431 53.9797 50.0351
315 1 Ar 27.2627 6.82138 49.2942
316 1 Ar 35.4194 31.9866 39.0436
317 1 Ar 5.65037 49.2305 33.6268
318 1 Ar 12.1618 36.1959 11.6604
319 1 Ar 32.0997 49.6439 37.7257
320 1 Ar 37.4347 50.9713 46.203
321 1 Ar 34.7692 14.4512 35.4008
322 1 Ar 8.87845 49.0449 47.2402
323 1 Ar 30.5662 27.9264 10.5978
324 1 Ar 24.7521 4.2202 4.12605
325 1 Ar 52.3385 5.3533 2.99108
326 1 Ar 36.9509 40.0428 50.7085
327 1 Ar 42.7189 25.7946 12.9066
328 1 Ar 35.767 49.2335 35.7764
329 1 Ar 22.5644 28.1004 0.000399557
330 1 Ar 23.5945 48.2412 48.2329
331 1 Ar 50.1375 28.7698 0.932666
332 1 Ar 3.52102 43.5868 2.65037
333 1 Ar 15.5807 34.2014 50.8009
334 1 Ar 46.8475 41.619 56.4688
335 1 Ar 54.0809 25.3433 49.8322
336 1 Ar 30.5726 22.9018 8.50068
337 1 Ar 39.8965 27.205 9.71189
338 1 Ar 8.41387 44.1135 31.4953
339 1 Ar 14.7928 34.8123 6.57344
340 1 Ar 37.8723 20.291 21.9026
341 1 Ar 29.5454 17.6313 55.4529
342 1 Ar 30.9297 51.2906 45.146
343 1 Ar 54.9406 31.5179 1.77213
344 1 Ar 16.7866 8.31577 16.2679
345 1 Ar 26.9352 45.4909 46.5126
346 1 Ar 52.3171 36.6148 20.9986
347 1 Ar 21.2652 33.3072 10.8863
348 1 Ar 34.2994 29.8143 8.26668
349 1 Ar 10.2276 57.6347 48.9738
350 1 Ar 36.4442 20.35 42.3089
351 1 Ar 12.2359 29.1428 11.369
352 1 Ar 40.6806 26.498 5.45042
353 1 Ar 45.212 5.90807 5.81291
354 1 Ar 6.20962 7.94576 2.20305
355 1 Ar 39.4835 32.6111 36.8538
356 1 Ar 58.0627 33.5203 0.491466
357 1 Ar 7.63116 29.1615 19.1958
358 1 Ar 50.637 48.5288 48.7244
359 1 Ar 27.9114 30.7071 27.2995
360 1 Ar 9.40301 22.7373 27.2805
361 1 Ar 45.7313 6.70193 13.4482
362 1 Ar 41.9933 32.4607 17.8724
363 1 Ar 51.6544 32.5658 0.82746
364 1 Ar 11.6805 8.71449 1.14772
365 1 Ar 7.40888 54.6408 27.8213
366 1 Ar 38.7748 4.61921 46.3782
367 1 Ar 39.7582 26.3312 16.8435
368 1 Ar 50.2279 56.7876 44.028
369 1 Ar 7.06628 20.1821 8.36051
370 1 Ar 20.0928 20.9666 9.57605
371 1 Ar 25.838 9.54057 19.2151
372 1 Ar 11.7452 1.65998 36.4655
373 1 Ar 36.9982 33.2357 42.0619
374 1 Ar 42.3807 43.0703 27.7597
375 1 Ar 42.0491 11.6191 22.496
376 1 Ar 50.9136 51.2668 31.3024
377 1 Ar 35.9123 20.8853 13.6572
378 1 Ar 23.3414 38.8613 9.60392
379 1 Ar 0.494594 40.6326 15.6116
380 1 Ar 35.0151 50.5907 55.9299
381 1 Ar 8.22529 23.9986 57.2297
382 1 Ar 31.5035 34.3859 33.4477
383 1 Ar 18.6306 12.3766 2.67798
384 1 Ar 30.0898 29.1792 55.0671
385 1 Ar 37.1209 54.4665 20.3364
386 1 Ar 19.9029 20.4684 55.2644
387 1 Ar 2.2016 7.63273 14.1416
388 1 Ar 32.999 45.4346 35.0967
389 1 Ar 45.8774 36.2422 0.721287
390 1 Ar 35.1649 57.8231 4.07936
391 1 Ar 40.3357 20.9701 1.30669
392 1 Ar 44.0406 22.0034 8.24137
393 1 Ar 52.8149 14.138 2.37301
394 1 Ar 10.278 44.8761 47.3944
395 1 Ar 16.1239 58.0123 36.6407
396 1 Ar 36.1349 27.9242 42.0834
397 1 Ar 14.0249 54.0656 17.9791
398 1 Ar 41.4128 21.8786 18.7663
399 1 Ar 57.918 43.4791 19.5216
400 1 Ar 33.7562 54.582 47.7429
401 1 Ar 32.1637 7.24599 33.2257
402 1 Ar 0.211012 30.9184 22.7879
403 1 Ar 57.4355 25.9406 41.2698
404 1 Ar 12.0244 14.0238 44.2513
405 1 Ar 38.916 16.6903 21.2778
406 1 Ar 7.79039 2.8358 51.2897
407 1 Ar 41.4003 44.262 16.7437
408 1 Ar 22.4287 7.39641 57.1731
409 1 Ar 32.1779 43.805 16.9822
410 1 Ar 14.7199 46.6186 30.1813
411 1 Ar 36.0623 4.76772 8.38092
412 1 Ar 3.89174 36.9073 45.2437
413 1 Ar 29.4565 13.5605 36.3109
414 1 Ar 14.6219 52.1344 28.774
415 1 Ar 46.6847 4.44696 29.4701
416 1 Ar 36.7947 18.5479 34.7747
417 1 Ar 0.0218141 47.6529 18.6879
418 1 Ar 40.1739 55.0523 3.02638
419 1 Ar 14.2914 57.204 29.0574
420 1 Ar 38.1148 43.7475 46.5897
421 1 Ar 51.1182 43.1323 51.3794
422 1 Ar 19.404 57.0801 34.3691
423 1 Ar 36.8588 30.5332 26.2636
424 1 Ar 24.3969 19.6796 11.0223
425 1 Ar 28.5241 47.9593 50.9045
426 1 Ar 44.6931 51.4741 47.6865
427 1 Ar 37.9219 30.3416 21.4639
428 1 Ar 3.01848 12.5911 1.81027
429 1 Ar 46.9903 40.1126 1.43522
430 1 Ar 23.0891 14.5426 49.7033
431 1 Ar 24.9847 17.1939 25.6721
432 1 Ar 28.7965 24.925 46.0088
433 1 Ar 33.7612 50.0652 46.8935
434 1 Ar 36.9592 23.6316 57.5366
435 1 Ar 47.7836 51.9446 38.5136
436 1 Ar 11.4661 54.0157 40.1932
437 1 Ar 7.57668 25.3078 51.866
438 1 Ar 37.8081 29.0404 4.93659
439 1 Ar 8.03199 28.8899 22.6951
440 1 Ar 15.2226 45.9241 21.8205
441 1 Ar 51.7474 35.3997 24.6008
442 1 Ar 47.508 47.7309 57.8358
443 1 Ar 7.92362 25.6525 20.2774
444 1 Ar 9.00083 34.3989 11.4724