ITEM: TIMESTEP
-1
ITEM: NUMBER OF ATOMS
500
ITEM: BOX BOUNDS pp pp pp
0 31.9952
0 31.9952
0 31.9952
ITEM: ATOMS id type element xu yu zu
0 1 Ar 0 0 0
1 1 Ar 0 0 3.55502
2 1 Ar 0 0 7.11005
3 1 Ar 0 0 10.6651
4 1 Ar 0 0 14.2201
5 1 Ar 0 0 17.7751
6 1 Ar 0 0 21.3301
7 1 Ar 0 0 24.8852
8 1 Ar 0 3.55502 0
9 1 Ar 0 3.55502 3.55502
10 1 Ar 0 3.55502 7.11005
11 1 Ar 0 3.55502 10.6651
12 1 Ar 0 3.55502 14.2201
13 1 Ar 0 3.55502 17.7751
14 1 Ar 0 3.55502 21.3301
15 1 Ar 0 3.55502 24.8852
16 1 Ar 0 7.11005 0
17 1 Ar 0 7.11005 3.55502
18 1 Ar 0 7.11005 7.11005
19 1 Ar 0 7.11005 10.6651
20 1 Ar 0 7.11005 14.2201
21 1 Ar 0 7.11005 17.7751
22 1 Ar 0 7.11005 21.3301
23 1 Ar 0 7.11005 24.8852
24 1 Ar 0 10.6651 0
25 1 Ar 0 10.6651 3.55502
26 1 Ar 0 10.6651 7.11005
27 1 Ar 0 10.6651 10.6651
28 1 Ar 0 10.6651 14.2201
29 1 Ar 0 10.6651 17.7751
30 1 Ar 0 10.6651 21.3301
31 1 Ar 0 10.6651 24.8852
32 1 Ar 0 14.2201 0
33 1 Ar 0 14.2201 3.55502
34 1 Ar 0 14.2201 7.11005
35 1 Ar 0 14.2201 10.6651
36 1 Ar 0 14.2201 14.2201
37 1 Ar 0 14.2201 17.7751
38 1 Ar 0 14.2201 21.3301
39 1 Ar 0 14.2201 24.8852
40 1 Ar 0 17.7751 0
41 1 Ar 0 17.7751 3.55502
42 1 Ar 0 17.7751 7.11005
43 1 Ar 0 17.7751 10.6651
44 1 Ar 0 17.7751 14.2201
45 1 Ar 0 17.7751 17.7751
46 1 Ar 0 17.7751 21.3301
47 1 Ar 0 17.7751 24.8852
48 1 Ar 0 21.3301 0
49 1 Ar 0 21.3301 3.55502
50 1 Ar 0 21.3301 7.11005
51 1 Ar 0 21.3301 10.6651
52 1 Ar 0 21.3301 14.2201
53 1 Ar 0 21.3301 17.7751
54 1 Ar 0 21.3301 21.3301
55 1 Ar 0 21.3301 24.8852
56 1 Ar 0 24.8852 0
57 1 Ar 0 24.8852 3.55502
58 1 Ar 0 24.8852 7.11005
59 1 Ar 0 24.8852 10.6651
60 1 Ar 0 24.8852 14.2201
61 1 Ar 0 24.8852 17.7751
62 1 Ar 0 24.8852 21.3301
63 1 Ar 0 24.8852 24.8852
64 1 Ar 3.55502 0 0
65 1 Ar 3.55502 0 3.55502
66 1 Ar 3.55502 0 7.11005
67 1 Ar 3.55502 0 10.6651
68 1 Ar 3.55502 0 14.2201
69 1 Ar 3.55502 0 17.7751
70 1 Ar 3.55502 0 21.3301
71 1 Ar 3.55502 0 24.8852
72 1 Ar 3.55502 3.55502 0
73 1 Ar 3.55502 3.55502 3.55502
74 1 Ar 3.55502 3.55502 7.11005
75 1 Ar 3.55502 3.55502 10.6651
76 1 Ar 3.55502 3.55502 14.2201
77 1 Ar 3.55502 3.55502 17.7751
78 1 Ar 3.55502 3.55502 21.3301
79 1 Ar 3.55502 3.55502 24.8852
80 1 Ar 3.55502 7.11005 0
81 1 Ar 3.55502 7.11005 3.55502
82 1 Ar 3.55502 7.11005 7.11005
83 1 Ar 3.55502 7.11005 10.6651
84 1 Ar 3.55502 7.11005 14.2201
85 1 Ar 3.55502 7.11005 17.7751
86 1 Ar 3.55502 7.11005 21.3301
87 1 Ar 3.55502 7.11005 24.8852
88 1 Ar 3.55502 10.6651 0
89 1 Ar 3.55502 10.6651 3.55502
90 1 Ar 3.55502 10.6651 7.11005
91 1 Ar 3.55502 10.6651 10.6651
92 1 Ar 3.55502 10.6651 14.2201
93 1 Ar 3.55502 10.6651 17.7751
94 1 Ar 3.55502 10.6651 21.3301
95 1 Ar 3.55502 10.6651 24.8852
96 1 Ar 3.55502 14.2201 0
97 1 Ar 3.55502 14.2201 3.55502
98 1 Ar 3.55502 14.2201 7.11005
99 1 Ar 3.55502 14.2201 10.6651
100 1 Ar 3.55502 14.2201 14.2201
101 1 Ar 3.55502 14.2201 17.7751
102 1 Ar 3.55502 14.2201 21.3301
103 1 Ar 3.55502 14.2201 24.8852
104 1 Ar 3.55502 17.7751 0
105 1 Ar 3.55502 17.7751 3.55502
106 1 Ar 3.55502 17.7751 7.11005
107 1 Ar 3.55502 17.7751 10.6651
108 1 Ar 3.55502 17.7751 14.2201
109 1 Ar 3.55502 17.7751 17.7751
110 1 Ar 3.55502 17.7751 21.3301
111 1 Ar 3.55502 17.7751 24.8852
112 1 Ar 3.55502 21.3301 0
113 1 Ar 3.55502 21.3301 3.55502
114 1 Ar 3.55502 21.3301 7.11005
115 1 Ar 3.55502 21.3301 10.6651
116 1 Ar 3.55502 21.3301 14.2201
117 1 Ar 3.55502 21.3301 17.7751
118 1 Ar 3.55502 21.3301 21.3301
119 1 Ar 3.55502 21.3301 24.8852
120 1 Ar 3.55502 24.8852 0
121 1 Ar 3.55502 24.8852 3.55502
122 1 Ar 3.55502 24.8852 7.11005
123 1 Ar 3.55502 24.8852 10.6651
124 1 Ar 3.55502 24.8852 14.2201
125 1 Ar 3.55502 24.8852 17.7751
126 1 Ar 3.55502 24.8852 21.3301
127 1 Ar 3.55502 24.8852 24.8852
128 1 Ar 7.11005 0 0
129 1 Ar 7.11005 0 3.55502
130 1 Ar 7.11005 0 7.11005
131 1 Ar 7.11005 0 10.6651
132 1 Ar 7.11005 0 14.2201
133 1 Ar 7.11005 0 17.7751
134 1 Ar 7.11005 0 21.3301
135 1 Ar 7.11005 0 24.8852
136 1 Ar 7.11005 3.55502 0
137 1 Ar 7.11005 3.55502 3.55502
138 1 Ar 7.11005 3.55502 7.11005
139 1 Ar 7.11005 3.55502 10.6651
140 1 Ar 7.11005 3.55502 14.2201
141 1 Ar 7.11005 3.55502 17.7751
142 1 Ar 7.11005 3.55502 21.3301
143 1 Ar 7.11005 3.55502 24.8852
144 1 Ar 7.11005 7.11005 0
145 1 Ar 7.11005 7.11005 3.55502
146 1 Ar 7.11005 7.11005 7.11005
147 1 Ar 7.11005 7.11005 10.6651
148 1 Ar 7.11005 7.11005 14.2201
149 1 Ar 7.11005 7.11005 17.7751
150 1 Ar 7.11005 7.11005 21.3301
151 1 Ar 7.11005 7.11005 24.8852
152 1 Ar 7.11005 10.6651 0
153 1 Ar 7.11005 10.6651 3.55502
154 1 Ar 7.11005 10.6651 7.11005
155 1 Ar 7.11005 10.6651 10.6651
156 1 Ar 7.11005 10.6651 14.2201
157 1 Ar 7.11005 10.6651 17.7751
158 1 Ar 7.11005 10.6651 21.3301
159 1 Ar 7.11005 10.6651 24.8852
160 1 Ar 7.11005 14.2201 0
161 1 Ar 7.11005 14.2201 3.55502
162 1 Ar 7.11005 14.2201 7.11005
163 1 Ar 7.11005 14.2201 10.6651
164 1 Ar 7.11005 14.2201 14.2201
165 1 Ar 7.11005 14.2201 17.7751
166 1 Ar 7.11005 14.2201 21.3301
167 1 Ar 7.11005 14.2201 24.8852
168 1 Ar 7.11005 17.7751 0
169 1 Ar 7.11005 17.7751 3.55502
170 1 Ar 7.11005 17.7751 7.11005
171 1 Ar 7.11005 17.7751 10.6651
172 1 Ar 7.11005 17.7751 14.2201
173 1 Ar 7.11005 17.7751 17.7751
174 1 Ar 7.11005 17.7751 21.3301
175 1 Ar 7.11005 17.7751 24.8852
176 1 Ar 7.11005 21.3301 0
177 1 Ar 7.11005 21.3301 3.55502
178 1 Ar 7.11005 21.3301 7.11005
179 1 Ar 7.11005 21.3301 10.6651
180 1 Ar 7.11005 21.3301 14.2201
181 1 Ar 7.11005 21.3301 17.7751
182 1 Ar 7.11005 21.3301 21.3301
183 1 Ar 7.11005 21.3301 24.8852
184 1 Ar 7.11005 24.8852 0
185 1 Ar 7.11005 24.8852 3.55502
186 1 Ar 7.11005 24.8852 7.11005
187 1 Ar 7.11005 24.8852 10.6651
188 1 Ar 7.11005 24.8852 14.2201
189 1 Ar 7.11005 24.8852 17.7751
190 1 Ar 7.11005 24.8852 21.3301
191 1 Ar 7.11005 24.8852 24.8852
192 1 Ar 10.6651 0 0
193 1 Ar 10.6651 0 3.55502
194 1 Ar 10.6651 0 7.11005
195 1 Ar 10.6651 0 10.6651
196 1 Ar 10.6651 0 14.2201
197 1 Ar 10.6651 0 17.7751
198 1 Ar 10.6651 0 21.3301
199 1 Ar 10.6651 0 24.8852
200 1 Ar 10.6651 3.55502 0
201 1 Ar 10.6651 3.55502 3.55502
202 1 Ar 10.6651 3.55502 7.11005
203 1 Ar 10.6651 3.55502 10.6651
204 1 Ar 10.6651 3.55502 14.2201
205 1 Ar 10.6651 3.55502 17.7751
206 1 Ar 10.6651 3.55502 21.3301
207 1 Ar 10.6651 3.55502 24.8852
208 1 Ar 10.6651 7.11005 0
209 1 Ar 10.6651 7.11005 3.55502
210 1 Ar 10.6651 7.11005 7.11005
211 1 Ar 10.6651 7.11005 10.6651
212 1 Ar 10.6651 7.11005 14.2201
213 1 Ar 10.6651 7.11005 17.7751
214 1 Ar 10.6651 7.11005 21.3301
215 1 Ar 10.6651 7.11005 24.8852
216 1 Ar 10.6651 10.6651 0
217 1 Ar 10.6651 10.6651 3.55502
218 1 Ar 10.6651 10.6651 7.11005
219 1 Ar 10.6651 10.6651 10.6651
220 1 Ar 10.6651 10.6651 14.2201
221 1 Ar 10.6651 10.6651 17.7751
222 1 Ar 10.6651 10.6651 21.3301
223 1 Ar 10.6651 10.6651 24.8852
224 1 Ar 10.6651 14.2201 0
225 1 Ar 10.6651 14.2201 3.55502
226 1 Ar 10.6651 14.2201 7.11005
227 1 Ar 10.6651 14.2201 10.6651
228 1 Ar 10.6651 14.2201 14.2201
229 1 Ar 10.6651 14.2201 17.7751
230 1 Ar 10.6651 14.2201 21.3301
231 1 Ar 10.6651 14.2201 24.8852
232 1 Ar 10.6651 17.7751 0
233 1 Ar 10.6651 17.7751 3.55502
234 1 Ar 10.6651 17.7751 7.11005
235 1 Ar 10.6651 17.7751 10.6651
236 1 Ar 10.6651 17.7751 14.2201
237 1 Ar 10.6651 17.7751 17.7751
238 1 Ar 10.6651 17.7751 21.3301
239 1 Ar 10.6651 17.7751 24.8852
240 1 Ar 10.6651 21.3301 0
241 1 Ar 10.6651 21.3301 3.55502
242 1 Ar 10.6651 21.3301 7.11005
243 1 Ar 10.6651 21.3301 10.6651
244 1 Ar 10.6651 21.3301 14.2201
245 1 Ar 10.6651 21.3301 17.7751
246 1 Ar 10.6651 21.3301 21.3301
247 1 Ar 10.6651 21.3301 24.8852
248 1 Ar 10.6651 24.8852 0
249 1 Ar 10.6651 24.8852 3.55502
250 1 Ar 10.6651 24.8852 7.11005
251 1 Ar 10.6651 24.8852 10.6651
252 1 Ar 10.6651 24.8852 14.2201
253 1 Ar 10.6651 24.8852 17.7751
254 1 Ar 10.6651 24.8852 21.3301
255 1 Ar 10.6651 24.8852 24.8852
256 1 Ar 14.2201 0 0
257 1 Ar 14.2201 0 3.55502
258 1 Ar 14.2201 0 7.11005
259 1 Ar 14.2201 0 10.6651
260 1 Ar 14.2201 0 14.2201
261 1 Ar 14.2201 0 17.7751
262 1 Ar 14.2201 0 21.3301
263 1 Ar 14.2201 0 24.8852
264 1 Ar 14.2201 3.55502 0
265 1 Ar 14.2201 3.55502 3.55502
266 1 Ar 14.2201 3.55502 7.11005
267 1 Ar 14.2201 3.55502 10.6651
268 1 Ar 14.2201 3.55502 14.2201
269 1 Ar 14.2201 3.55502 17.7751
270 1 Ar 14.2201 3.55502 21.3301
271 1 Ar 14.2201 3.55502 24.8852
272 1 Ar 14.2201 7.11005 0
273 1 Ar 14.2201 7.11005 3.55502
274 1 Ar 14.2201 7.11005 7.11005
275 1 Ar 14.2201 7.11005 10.6651
276 1 Ar 14.2201 7.11005 14.2201
277 1 Ar 14.2201 7.11005 17.7751
278 1 Ar 14.2201 7.11005 21.3301
279 1 Ar 14.2201 7.11005 24.8852
280 1 Ar 14.2201 10.6651 0
281 1 Ar 14.2201 10.6651 3.55502
282 1 Ar 14.2201 10.6651 7.11005
283 1 Ar 14.2201 10.6651 10.6651
284 1 Ar 14.2201 10.6651 14.2201
285 1 Ar 14.2201 10.6651 17.7751
286 1 Ar 14.2201 10.6651 21.3301
287 1 Ar 14.2201 10.6651 24.8852
288 1 Ar 14.2201 14.2201 0
289 1 Ar 14.2201 14.2201 3.55502
290 1 Ar 14.2201 14.2201 7.11005
291 1 Ar 14.2201 14.2201 10.6651
292 1 Ar 14.2201 14.2201 14.2201
293 1 Ar 14.2201 14.2201 17.7751
294 1 Ar 14.2201 14.2201 21.3301
295 1 Ar 14.2201 14.2201 24.8852
296 1 Ar 14.2201 17.7751 0
297 1 Ar 14.2201 17.7751 3.55502
298 1 Ar 14.2201 17.7751 7.11005
299 1 Ar 14.2201 17.7751 10.6651
300 1 Ar 14.2201 17.7751 14.2201
301 1 Ar 14.2201 17.7751 17.7751
302 1 Ar 14.2201 17.7751 21.3301
303 1 Ar 14.2201 17.7751 24.8852
304 1 Ar 14.2201 21.3301 0
305 1 Ar 14.2201 21.3301 3.55502
306 1 Ar 14.2201 21.3301 7.11005
307 1 Ar 14.2201 21.3301 10.6651
308 1 Ar 14.2201 21.3301 14.2201
309 1 Ar 14.2201 21.3301 17.7751
310 1 Ar 14.2201 21.3301 21.3301
311 1 Ar 14.2201 21.3301 24.8852
312 1 Ar 14.2201 24.8852 0
313 1 Ar 14.2201 24.8852 3.55502
314 1 Ar 14.2201 24.8852 7.11005
315 1 Ar 14.2201 24.8852 10.6651
316 1 Ar 14.2201 24.8852 14.2201
317 1 Ar 14.2201 24.8852 17.7751
318 1 Ar 14.2201 24.8852 21.3301
319 1 Ar 14.2201 24.8852 24.8852
320 1 Ar 17.7751 0 0
321 1 Ar 17.7751 0 3.55502
322 1 Ar 17.7751 0 7.11005
323 1 Ar 17.7751 0 10.6651
324 1 Ar 17.7751 0 14.2201
325 1 Ar 17.7751 0 17.7751
326 1 Ar 17.7751 0 21.3301
327 1 Ar 17.7751 0 24.8852
328 1 Ar 17.7751 3.55502 0
329 1 Ar 17.7751 3.55502 3.55502
330 1 Ar 17.7751 3.55502 7.11005
331 1 Ar 17.7751 3.55502 10.6651
332 1 Ar 17.7751 3.55502 14.2201
333 1 Ar 17.7751 3.55502 17.7751
334 1 Ar 17.7751 3.55502 21.3301
335 1 Ar 17.7751 3.55502 24.8852
336 1 Ar 17.7751 7.11005 0
337 1 Ar 17.7751 7.11005 3.55502
338 1 Ar 17.7751 7.11005 7.11005
339 1 Ar 17.7751 7.11005 10.6651
340 1 Ar 17.7751 7.11005 14.2201
341 1 Ar 17.7751 7.11005 17.7751
342 1 Ar 17.7751 7.11005 21.3301
343 1 Ar 17.7751 7.11005 24.8852
344 1 Ar 17.7751 10.6651 0
345 1 Ar 17.7751 10.6651 3.55502
346 1 Ar 17.7751 10.6651 7.11005
347 1 Ar 17.7751 10.6651 10.6651
348 1 Ar 17.7751 10.6651 14.2201
349 1 Ar 17.7751 10.6651 17.7751
350 1 Ar 17.7751 10.6651 21.3301
351 1 Ar 17.7751 10.6651 24.8852
352 1 Ar 17.7751 14.2201 0
353 1 Ar 17.7751 14.2201 3.55502
354 1 Ar 17.7751 14.2201 7.11005
355 1 Ar 17.7751 14.2201 10.6651
356 1 Ar 17.7751 14.2201 14.2201
357 1 Ar 17.7751 14.2201 17.7751
358 1 Ar 17.7751 14.2201 21.3301
359 1 Ar 17.7751 14.2201 24.8852
360 1 Ar 17.7751 17.7751 0
361 1 Ar 17.7751 17.7751 3.55502
362 1 Ar 17.7751 17.7751 7.11005
363 1 Ar 17.7751 17.7751 10.6651
364 1 Ar 17.7751 17.7751 14.2201
365 1 Ar 17.7751 17.7751 17.7751
366 1 Ar 17.7751 17.7751 21.3301
367 1 Ar 17.7751 17.7751 24.8852
368 1 Ar 17.7751 21.3301 0
369 1 Ar 17.7751 21.3301 3.55502
370 1 Ar 17.7751 21.3301 7.11005
371 1 Ar 17.7751 21.3301 10.6651
372 1 Ar 17.7751 21.3301 14.2201
373 1 Ar 17.7751 21.3301 17.7751
374 1 Ar 17.7751 21.3301 21.3301
375 1 Ar 17.7751 21.3301 24.8852
376 1 Ar 17.7751 24.8852 0
377 1 Ar 17.7751 24.8852 3.55502
378 1 Ar 17.7751 24.8852 7.11005
379 1 Ar 17.7751 24.8852 10.6651
380 1 Ar 17.7751 24.8852 14.2201
381 1 Ar 17.7751 24.8852 17.7751
382 1 Ar 17.7751 24.8852 21.3301
383 1 Ar 17.7751 24.8852 24.8852
384 1 Ar 21.3301 0 0
385 1 Ar 21.3301 0 3.55502
386 1 Ar 21.3301 0 7.11005
387 1 Ar 21.3301 0 10.6651
388 1 Ar 21.3301 0 14.2201
389 1 Ar 21.3301 0 17.7751
390 1 Ar 21.3301 0 21.3301
391 1 Ar 21.3301 0 24.8852
392 1 Ar 21.3301 3.55502 0
393 1 Ar 21.3301 3.55502 3.55502
394 1 Ar 21.3301 3.55502 7.11005
395 1 Ar 21.3301 3.55502 10.6651
396 1 Ar 21.3301 3.55502 14.2201
397 1 Ar 21.3301 3.55502 17.7751
398 1 Ar 21.3301 3.55502 21.3301
399 1 Ar 21.3301 3.55502 24.8852
400 1 Ar 21.3301 7.11005 0
401 1 Ar 21.3301 7.11005 3.55502
402 1 Ar 21.3301 7.11005 7.11005
403 1 Ar 21.3301 7.11005 10.6651
404 1 Ar 21.3301 7.11005 14.2201
405 1 Ar 21.3301 7.11005 17.7751
406 1 Ar 21.3301 7.11005 21.3301
407 1 Ar 21.3301 7.11005 24.8852
408 1 Ar 21.3301 10.6651 0
409 1 Ar 21.3301 10.6651 3.55502
410 1 Ar 21.3301 10.6651 7.11005
411 1 Ar 21.3301 10.6651 10.6651
412 1 Ar 21.3301 10.6651 14.2201
413 1 Ar 21.3301 10.6651 17.7751
414 1 Ar 21.3301 10.6651 21.3301
415 1 Ar 21.3301 10.6651 24.8852
416 1 Ar 21.3301 14.2201 0
417 1 Ar 21.3301 14.2201 3.55502
418 1 Ar 21.3301 14.2201 7.11005
419 1 Ar 21.3301 14.2201 10.6651
420 1 Ar 21.3301 14.2201 14.2201
421 1 Ar 21.3301 14.2201 17.7751
422 1 Ar 21.3301 14.2201 21.3301
423 1 Ar 21.3301 14.2201 24.8852
424 1 Ar 21.3301 17.7751 0
425 1 Ar 21.3301 17.7751 3.55502
426 1 Ar 21.3301 17.7751 7.11005
427 1 Ar 21.3301 17.7751 10.6651
428 1 Ar 21.3301 17.7751 14.2201
429 1 Ar 21.3301 17.7751 17.7751
430 1 Ar 21.3301 17.7751 21.3301
431 1 Ar 21.3301 17.7751 24.8852
432 1 Ar 21.3301 21.3301 0
433 1 Ar 21.3301 21.3301 3.55502
434 1 Ar 21.3301 21.3301 7.11005
435 1 Ar 21.3301 21.3301 10.6651
436 1 Ar 21.3301 21.3301 14.2201
437 1 Ar 21.3301 21.3301 17.7751
438 1 Ar 21.3301 21.3301 21.3301
439 1 Ar 21.3301 21.3301 24.8852
440 1 Ar 21.3301 24.8852 0
441 1 Ar 21.3301 24.8852 3.55502
442 1 Ar 21.3301 24.8852 7.11005
443 1 Ar 21.3301 24.8852 10.6651
444 1 Ar 21.3301 24.8852 14.2201
445 1 Ar 21.3301 24.8852 17.7751
446 1 Ar 21.3301 24.8852 21.3301
447 1 Ar 21.3301 24.8852 24.8852
448 1 Ar 24.8852 0 0
449 1 Ar 24.8852 0 3.55502
450 1 Ar 24.8852 0 7.11005
451 1 Ar 24.8852 0 10.6651
452 1 Ar 24.8852 0 14.2201
453 1 Ar 24.8852 0 17.7751
454 1 Ar 24.8852 0 21.3301
455 1 Ar 24.8852 0 24.8852
456 1 Ar 24.8852 3.55502 0
457 1 Ar 24.8852 3.55502 3.55502
458 1 Ar 24.8852 3.55502 7.11005
459 1 Ar 24.8852 3.55502 10.6651
460 1 Ar 24.8852 3.55502 14.2201
461 1 Ar 24.8852 3.55502 17.7751
462 1 Ar 24.8852 3.55502 21.3301
463 1 Ar 24.8852 3.55502 24.8852
464 1 Ar 24.8852 7.11005 0
465 1 Ar 24.8852 7.11005 3.55502
466 1 Ar 24.8852 7.11005 7.11005
467 1 Ar 24.8852 7.11005 10.6651
468 1 Ar 24.8852 7.11005 14.2201
469 1 Ar 24.8852 7.11005 17.7751
470 1 Ar 24.8852 7.11005 21.3301
471 1 Ar 24.8852 7.11005 24.8852
472 1 Ar 24.8852 10.6651 0
473 1 Ar 24.8852 10.6651 3.55502
474 1 Ar 24.8852 10.6651 7.11005
475 1 Ar 24.8852 10.6651 10.6651
476 1 Ar 24.8852 10.6651 14.2201
477 1 Ar 24.8852 10.6651 17.7751
478 1 Ar 24.8852 10.6651 21.3301
479 1 Ar 24.8852 10.6651 24.8852
480 1 Ar 24.8852 14.2201 0
481 1 Ar 24.8852 14.2201 3.55502
482 1 Ar 24.8852 14.2201 7.11005
483 1 Ar 24.8852 14.2201 10.6651
484 1 Ar 24.8852 14.2201 14.2201
485 1 Ar 24.8852 14.2201 17.7751
486 1 Ar 24.8852 14.2201 21.3301
487 1 Ar 24.8852 14.2201 24.8852
488 1 Ar 24.8852 17.7751 0
489 1 Ar 24.8852 17.7751 3.55502
490 1 Ar 24.8852 17.7751 7.11005
491 1 Ar 24.8852 17.7751 10.6651
492 1 Ar 24.8852 17.7751 14.2201
493 1 Ar 24.8852 17.7751 17.7751
494 1 Ar 24.8852 17.7751 21.3301
495 1 Ar 24.8852 17.7751 24.8852
496 1 Ar 24.8852 21.3301 0
497 1 Ar 24.8852 21.3301 3.55502
498 1 Ar 24.8852 21.3301 7.11005
499 1 Ar 24.8852 21.3301 10.6651
ITEM: TIMESTEP
19999
ITEM: NUMBER OF ATOMS
500
ITEM: BOX BOUNDS pp pp pp
0 31.9952
0 31.9952
0 31.9952
ITEM: ATOMS id type element xu yu zu
0 1 Ar 29.6674 31.3058 0.217707
1 1 Ar 0.0886557 31.4948 3.65887
2 1 Ar 0.539328 31.5176 7.93711
3 1 Ar 29.4449 0.865988 10.202
4 1 Ar 31.9558 31.5193 13.6172
5 1 Ar 31.2553 30.2914 17.7139
6 1 Ar 0.94997 31.6949 22.6843
7 1 Ar 31.1353 0.327436 26.6884
8 1 Ar 0.39485 2.00965 0.513881
9 1 Ar 30.827 3.21941 3.74752
10 1 Ar 29.5493 4.69565 6.73499
11 1 Ar 0.164986 3.62768 8.85781
12 1 Ar 0.861211 2.9583 13.8873
13 1 Ar 30.5589 3.33877 17.4391
14 1 Ar 0.273267 3.02494 21.6869
15 1 Ar 31.6775 3.89667 25.2686
16 1 Ar 30.7069 7.38268 0.0716096
17 1 Ar 0.416791 7.11041 3.0506
18 1 Ar 31.6034 7.55542 6.55743
19 1 Ar 28.4545 9.33596 7.53104
20 1 Ar 30.3713 6.79894 14.4071
21 1 Ar 31.9021 6.8412 17.4421
22 1 Ar 31.0975 6.67771 20.8789
23 1 Ar 29.2398 8.39123 27.1537
24 1 Ar 0.221928 10.5298 0.305284
25 1 Ar 29.8337 10.7995 3.50234
26 1 Ar 0.0503572 10.8091 7.23765
27 1 Ar 30.2324 10.1745 11.0535
28 1 Ar 0.855889 11.2244 13.7202
29 1 Ar 0.119756 10.0504 17.0521
30 1 Ar 31.4039 10.4258 20.5154
31 1 Ar 30.924 10.9896 25.4316
32 1 Ar 0.108124 13.7987 30.9311
33 1 Ar 30.2027 14.7741 3.94984
34 1 Ar 0.896188 14.1316 6.74179
35 1 Ar 31.7166 14.2038 10.3805
36 1 Ar 31.4318 14.3726 14.0011
37 1 Ar 31.1957 13.2627 17.4537
38 1 Ar 31.3733 14.0931 21.3227
39 1 Ar 31.6927 14.7042 24.6884
40 1 Ar 31.93 17.1697 0.662433
41 1 Ar 31.8772 18.2289 4.3175
42 1 Ar 0.0517788 17.481 7.45618
43 1 Ar 0.542005 17.3276 11.2555
44 1 Ar 29.3909 17.6405 13.314
45 1 Ar 31.8947 16.3602 17.3701
46 1 Ar 30.9785 19.0859 20.5816
47 1 Ar 31.2716 18.2593 25.5422
48 1 Ar 0.476277 20.8633 0.0648919
49 1 Ar 31.5241 21.366 3.39246
50 1 Ar 0.126124 20.8343 7.82006
51 1 Ar 0.403762 22.0456 11.2228
52 1 Ar 30.8089 21.084 14.5833
53 1 Ar 31.771 21.0564 17.8147
54 1 Ar 0.657509 22.6709 21.0969
55 1 Ar 0.0653538 21.9646 24.4017
56 1 Ar 30.3038 24.9292 0.236865
57 1 Ar 1.03702 24.5578 2.68886
58 1 Ar 31.4551 23.8805 6.58367
59 1 Ar 31.1756 24.9871 10.2445
60 1 Ar 31.0848 27.3586 13.1392
61 1 Ar 31.1447 25.5372 17.6364
62 1 Ar 31.7861 25.8083 22.1614
63 1 Ar 0.0518576 25.508 25.8336
64 1 Ar 2.36046 0.34292 29.8703
65 1 Ar 3.69343 31.1044 2.21072
66 1 Ar 4.28662 31.1434 6.31181
67 1 Ar 5.14532 29.5995 10.4747
68 1 Ar 3.30689 0.154603 12.8587
69 1 Ar 3.08288 31.1886 19.1118
70 1 Ar 4.33063 30.6571 21.8721
71 1 Ar 3.15422 31.1921 26.2966
72 1 Ar 3.50829 3.42701 31.1681
73 1 Ar 2.22444 4.00515 2.57429
74 1 Ar 2.86456 2.73638 6.31445
75 1 Ar 3.33296 2.15041 10.3415
76 1 Ar 3.99327 3.7692 14.1131
77 1 Ar 2.5409 3.76865 17.6788
78 1 Ar 3.851 2.16187 22.0501
79 1 Ar 4.13636 3.3573 25.4628
80 1 Ar 2.90554 6.85325 30.0605
81 1 Ar 4.84795 6.9201 2.87738
82 1 Ar 3.67862 6.53726 6.99861
83 1 Ar 2.35047 5.71491 11.3169
84 1 Ar 2.59754 7.78428 14.259
85 1 Ar 3.6884 7.44904 17.6172
86 1 Ar 3.01998 5.63955 21.1835
87 1 Ar 3.21603 6.44157 24.6468
88 1 Ar 3.58923 10.4606 0.628002
89 1 Ar 2.739 10.018 4.23433
90 1 Ar 3.61433 10.9636 7.76988
91 1 Ar 3.24749 10.6123 11.4715
92 1 Ar 4.7087 10.5939 15.5489
93 1 Ar 3.61471 11.2179 18.6069
94 1 Ar 3.41647 9.14428 21.0948
95 1 Ar 2.39704 10.0364 25.1288
96 1 Ar 3.59218 13.7489 31.7676
97 1 Ar 2.80135 13.7601 3.27769
98 1 Ar 3.88454 14.3739 7.12034
99 1 Ar 3.83067 13.7408 10.827
100 1 Ar 3.35507 13.9208 14.3695
101 1 Ar 3.46214 14.4173 18.1881
102 1 Ar 3.11579 12.9029 21.6072
103 1 Ar 2.74076 13.4115 25.9079
104 1 Ar 4.04231 17.1194 31.2956
105 1 Ar 2.67077 18.5444 2.11552
106 1 Ar 3.21648 18.3129 6.40478
107 1 Ar 4.12235 17.678 10.0062
108 1 Ar 3.3688 17.678 14.2
109 1 Ar 3.32844 18.0226 17.5092
110 1 Ar 3.53343 16.7283 21.0311
111 1 Ar 3.25866 17.7005 24.5233
112 1 Ar 3.96936 21.7053 0.0985465
113 1 Ar 3.03678 21.7379 3.36121
114 1 Ar 3.76521 21.6406 6.74295
115 1 Ar 3.80184 21.049 10.5099
116 1 Ar 2.73791 21.1323 14.4212
117 1 Ar 3.10254 21.5662 18.5726
118 1 Ar 3.93143 20.6204 22.2368
119 1 Ar 2.73357 21.3419 25.6892
120 1 Ar 3.13786 25.8455 31.3964
121 1 Ar 1.88719 28.2059 4.36207
122 1 Ar 2.86526 24.7841 6.01283
123 1 Ar 3.08493 24.8915 10.0368
124 1 Ar 2.735 26.686 14.1788
125 1 Ar 3.95756 26.8503 18.6106
126 1 Ar 3.49107 24.0816 22.4707
127 1 Ar 3.36889 26.3607 25.4868
128 1 Ar 6.9636 31.3209 0.0955128
129 1 Ar 7.82896 0.702569 3.84685
130 1 Ar 7.60092 0.554617 7.21961
131 1 Ar 7.50458 0.246338 10.8064
132 1 Ar 6.33401 0.292528 14.7343
133 1 Ar 7.52274 31.7095 17.7762
134 1 Ar 7.40633 0.311664 21.1771
135 1 Ar 6.37134 31.9494 24.7419
136 1 Ar 7.02179 3.44248 1.13689
137 1 Ar 5.5744 3.81206 4.10167
138 1 Ar 6.55281 4.09072 7.67099
139 1 Ar 6.67948 3.71253 11.819
140 1 Ar 7.64925 4.22209 15.4639
141 1 Ar 6.39551 3.7246 18.8515
142 1 Ar 6.71634 3.48284 23.2308
143 1 Ar 7.89346 3.69349 26.2746
144 1 Ar 6.4773 6.72369 31.5532
145 1 Ar 8.15892 6.07554 3.38398
146 1 Ar 7.8032 7.80038 6.50562
147 1 Ar 6.67026 6.87607 10.2788
148 1 Ar 6.09061 7.06635 14.171
149 1 Ar 7.3338 7.04511 18.2596
150 1 Ar 6.46685 6.8998 22.3197
151 1 Ar 7.03059 7.48474 26.1105
152 1 Ar 7.33363 10.898 31.9635
153 1 Ar 6.6897 10.2737 3.27778
154 1 Ar 6.99039 11.5675 7.07417
155 1 Ar 7.04143 10.4556 10.5759
156 1 Ar 7.64572 10.7974 13.6575
157 1 Ar 7.93665 10.8037 17.6839
158 1 Ar 6.68931 10.4346 20.9285
159 1 Ar 5.62154 11.057 24.231
160 1 Ar 7.51479 15.4662 0.0659376
161 1 Ar 6.39189 14.9106 3.70681
162 1 Ar 7.34389 15.0888 7.57711
163 1 Ar 7.41466 13.7715 10.9389
164 1 Ar 6.71123 14.4495 14.3547
165 1 Ar 7.23011 14.6106 17.9899
166 1 Ar 6.99069 14.2002 21.3887
167 1 Ar 7.44609 13.835 24.9613
168 1 Ar 6.80344 19.2822 31.4505
169 1 Ar 6.25943 18.164 3.02518
170 1 Ar 6.66721 18.3505 6.77334
171 1 Ar 7.60095 17.8804 9.97941
172 1 Ar 6.90464 17.489 13.4483
173 1 Ar 7.53433 17.9092 17.7569
174 1 Ar 7.11547 17.7728 20.998
175 1 Ar 7.39006 17.8629 24.6769
176 1 Ar 7.44632 22.2523 29.9259
177 1 Ar 6.64695 21.7958 3.69438
178 1 Ar 7.35459 21.7903 6.98917
179 1 Ar 7.18616 22.0863 10.8981
180 1 Ar 6.59245 20.7819 13.8362
181 1 Ar 6.65073 21.6462 17.3942
182 1 Ar 7.32308 21.2249 20.9905
183 1 Ar 6.53866 20.9666 24.6889
184 1 Ar 7.30021 25.5604 31.5889
185 1 Ar 6.25585 25.2298 3.87255
186 1 Ar 7.22499 25.0791 7.48468
187 1 Ar 7.12456 25.5303 11.2174
188 1 Ar 5.14763 24.2269 13.8719
189 1 Ar 7.3406 26.6444 16.0895
190 1 Ar 7.55026 24.472 22.9401
191 1 Ar 6.84917 24.7271 26.1729
192 1 Ar 10.8333 31.1546 29.7704
193 1 Ar 10.6083 31.6416 2.5168
194 1 Ar 10.8608 31.3445 6.00558
195 1 Ar 11.2092 31.57 10.4679
196 1 Ar 8.88784 29.4976 14.1145
197 1 Ar 11.1893 31.2969 17.7826
198 1 Ar 10.6249 31.6268 22.1015
199 1 Ar 9.52303 0.521683 25.9001
200 1 Ar 10.5206 3.49163 31.8157
201 1 Ar 10.4657 3.84332 3.93977
202 1 Ar 10.1605 2.84145 7.35118
203 1 Ar 10.2043 3.52982 10.9586
204 1 Ar 10.933 2.4231 14.2196
205 1 Ar 10.309 2.88481 17.7619
206 1 Ar 10.3349 3.19796 21.3695
207 1 Ar 11.2461 3.6679 24.5861
208 1 Ar 10.0313 7.49652 30.4887
209 1 Ar 11.3531 7.58372 3.08774
210 1 Ar 11.4601 7.67212 6.46844
211 1 Ar 10.2711 7.11471 9.81935
212 1 Ar 9.43923 7.10361 13.8125
213 1 Ar 10.6225 6.57965 17.2034
214 1 Ar 10.6185 6.74706 20.7169
215 1 Ar 10.6602 6.95883 25.4059
216 1 Ar 11.1499 10.8149 31.9591
217 1 Ar 10.4525 10.8438 4.33259
218 1 Ar 11.0614 10.5309 7.94396
219 1 Ar 10.3456 10.6908 11.4298
220 1 Ar 10.9659 10.8467 15.0848
221 1 Ar 11.1024 9.79129 18.3601
222 1 Ar 9.92117 10.4554 21.5812
223 1 Ar 9.41932 10.9501 25.2481
224 1 Ar 10.4896 14.0154 29.1532
225 1 Ar 10.301 14.0266 2.76351
226 1 Ar 10.5508 14.2174 6.59003
227 1 Ar 10.5723 14.8359 10.2227
228 1 Ar 11.4655 14.3797 13.866
229 1 Ar 10.9873 13.3709 17.7468
230 1 Ar 10.3898 14.9145 20.7071
231 1 Ar 11.1711 14.0246 25.2991
232 1 Ar 10.3213 17.3835 31.818
233 1 Ar 9.97884 17.808 3.35193
234 1 Ar 10.3972 17.6676 6.90972
235 1 Ar 11.2412 18.0589 10.5135
236 1 Ar 10.4977 17.7673 14.3292
237 1 Ar 11.1106 17.7261 18.0331
238 1 Ar 10.2202 17.8815 22.1338
239 1 Ar 9.63816 17.1302 27.6627
240 1 Ar 11.3888 20.6168 28.7988
241 1 Ar 10.5225 21.4086 3.24461
242 1 Ar 10.796 21.485 6.91812
243 1 Ar 10.384 21.4684 11.0472
244 1 Ar 9.38813 22.5915 14.2253
245 1 Ar 10.2599 21.9571 17.6334
246 1 Ar 10.9355 21.1692 21.1661
247 1 Ar 10.3044 21.0801 24.9458
248 1 Ar 9.99855 24.6393 29.6979
249 1 Ar 9.75572 26.5198 2.28343
250 1 Ar 10.6492 25.0315 6.33458
251 1 Ar 11.0703 24.4707 9.79358
252 1 Ar 10.8057 26.8057 13.1144
253 1 Ar 10.7997 25.0714 17.0078
254 1 Ar 10.4372 24.6006 20.4557
255 1 Ar 10.9761 25.2452 24.0149
256 1 Ar 14.1512 31.2491 31.7784
257 1 Ar 13.9553 31.2273 4.35379
258 1 Ar 13.8089 0.235343 8.07666
259 1 Ar 14.7235 0.605018 12.1068
260 1 Ar 13.5139 31.9031 15.3586
261 1 Ar 14.4576 28.9966 17.6664
262 1 Ar 13.8735 0.556415 20.8485
263 1 Ar 15.2075 1.05948 24.2013
264 1 Ar 13.9609 3.04797 30.9029
265 1 Ar 13.2689 2.38144 2.202
266 1 Ar 13.7722 4.24548 6.86088
267 1 Ar 14.3375 3.96471 10.8367
268 1 Ar 15.2167 3.2115 14.3445
269 1 Ar 14.0399 3.62175 17.6764
270 1 Ar 14.8686 4.09124 21.0419
271 1 Ar 15.3627 4.08722 26.3095
272 1 Ar 14.1045 7.3818 0.400137
273 1 Ar 15.1137 7.24314 4.32504
274 1 Ar 15.9958 7.3922 7.73867
275 1 Ar 13.6269 7.49264 10.616
276 1 Ar 13.5731 6.6219 13.9169
277 1 Ar 14.0207 7.06285 18.5045
278 1 Ar 14.1169 7.72056 21.7947
279 1 Ar 14.2037 7.80089 25.4404
280 1 Ar 15.1396 10.3737 30.4275
281 1 Ar 13.5499 10.3156 2.8378
282 1 Ar 14.2644 10.0494 6.38085
283 1 Ar 13.8001 11.1507 10.3375
284 1 Ar 14.1676 9.88083 14.1215
285 1 Ar 14.4341 10.8558 18.0087
286 1 Ar 13.8761 10.9514 21.5944
287 1 Ar 13.9424 11.448 24.9928
288 1 Ar 13.8152 13.8567 30.6182
289 1 Ar 14.4783 13.8258 3.79513
290 1 Ar 14.6239 13.979 7.40678
291 1 Ar 14.0474 15.131 10.9462
292 1 Ar 14.6232 13.1312 13.8892
293 1 Ar 14.1966 14.2897 17.2137
294 1 Ar 14.2924 14.6538 22.4467
295 1 Ar 13.9326 15.0896 26.7145
296 1 Ar 14.8602 16.5887 0.818608
297 1 Ar 13.7613 18.2257 3.71855
298 1 Ar 14.1124 17.5669 6.85202
299 1 Ar 14.7934 18.5521 10.0659
300 1 Ar 13.9549 17.4502 14.1456
301 1 Ar 15.2072 17.5356 17.7614
302 1 Ar 13.2338 17.683 20.9916
303 1 Ar 13.7262 18.5197 24.9119
304 1 Ar 13.7437 20.735 31.9589
305 1 Ar 14.3837 21.7184 3.50812
306 1 Ar 14.0296 20.7197 7.58004
307 1 Ar 13.9621 22.137 10.6456
308 1 Ar 13.9707 21.8583 13.9067
309 1 Ar 13.5833 21.8261 18.2452
310 1 Ar 15.5277 20.5014 22.3676
311 1 Ar 14.4086 21.7303 25.5144
312 1 Ar 14.2906 24.2328 31.2567
313 1 Ar 13.0675 25.5044 3.78693
314 1 Ar 14.7278 25.0431 7.07239
315 1 Ar 14.3545 25.718 10.7481
316 1 Ar 15.4205 25.7598 14.5557
317 1 Ar 13.8549 25.4201 18.5943
318 1 Ar 13.7366 24.5144 22.0038
319 1 Ar 13.3726 25.9192 26.1666
320 1 Ar 17.8887 31.4054 31.6282
321 1 Ar 17.8927 0.0937257 3.92011
322 1 Ar 17.6841 31.5967 8.08839
323 1 Ar 17.6353 29.9207 11.9224
324 1 Ar 17.6437 0.103807 14.6071
325 1 Ar 19.5817 30.5402 17.4321
326 1 Ar 15.9318 29.9734 20.9787
327 1 Ar 19.4607 31.4818 24.876
328 1 Ar 17.7161 3.01668 31.7415
329 1 Ar 18.0253 3.94484 3.08405
330 1 Ar 17.2922 3.25426 6.44463
331 1 Ar 17.4998 2.45097 10.9094
332 1 Ar 18.8307 4.20322 13.4377
333 1 Ar 17.3443 2.722 17.1633
334 1 Ar 18.1712 3.11153 22.0319
335 1 Ar 19.1239 3.1113 25.7326
336 1 Ar 17.1578 6.74552 30.673
337 1 Ar 18.4644 7.23587 2.13287
338 1 Ar 19.0299 7.48642 6.21953
339 1 Ar 17.443 6.30661 10.6116
340 1 Ar 17.9296 8.19777 13.4286
341 1 Ar 18.2331 6.31362 16.6603
342 1 Ar 17.655 6.95884 20.8903
343 1 Ar 17.8049 7.27334 25.1026
344 1 Ar 18.2521 10.78 0.628225
345 1 Ar 16.8626 10.1782 3.95584
346 1 Ar 17.6765 11.3277 7.4105
347 1 Ar 18.3959 9.95438 10.5087
348 1 Ar 17.4662 11.3463 14.7588
349 1 Ar 18.4514 9.5978 18.0919
350 1 Ar 17.6847 10.5897 21.9957
351 1 Ar 17.2627 10.8853 26.5514
352 1 Ar 17.943 14.6915 0.385812
353 1 Ar 18.214 13.1369 4.2767
354 1 Ar 17.9536 14.8787 8.33078
355 1 Ar 17.3146 14.0357 11.4811
356 1 Ar 19.0345 14.2063 14.7171
357 1 Ar 17.3178 13.0034 18.0141
358 1 Ar 18.4825 14.0148 21.2876
359 1 Ar 17.3254 14.4525 26.0741
360 1 Ar 17.4754 18.799 31.7298
361 1 Ar 17.6989 16.6165 3.18213
362 1 Ar 17.668 17.9253 6.91494
363 1 Ar 17.8989 17.408 10.8977
364 1 Ar 17.5539 17.6768 14.8316
365 1 Ar 18.6963 17.6136 18.1042
366 1 Ar 17.2209 17.2924 21.4617
367 1 Ar 18.0418 17.7727 25.1202
368 1 Ar 18.1777 21.9743 31.8513
369 1 Ar 17.5949 22.381 4.03727
370 1 Ar 17.5356 21.3729 7.36443
371 1 Ar 17.1796 20.8607 11.5201
372 1 Ar 18.5812 21.3429 14.6468
373 1 Ar 16.9568 21.0999 17.5689
374 1 Ar 18.4224 22.3464 20.9736
375 1 Ar 17.8947 21.3466 25.0365
376 1 Ar 17.2669 25.4927 0.553789
377 1 Ar 16.5991 26.0606 4.19169
378 1 Ar 17.9509 24.4796 6.77012
379 1 Ar 17.4697 24.2828 10.2341
380 1 Ar 19.0591 26.0236 13.0487
381 1 Ar 18.7019 24.7481 17.1775
382 1 Ar 16.9871 26.5367 20.558
383 1 Ar 16.8825 25.6335 24.7917
384 1 Ar 22.2126 31.1889 31.3465
385 1 Ar 20.6708 31.3933 2.20795
386 1 Ar 20.3239 30.1644 6.04419
387 1 Ar 21.0138 29.5289 10.1362
388 1 Ar 20.4379 0.558739 12.0213
389 1 Ar 22.9247 31.8592 17.0316
390 1 Ar 20.1241 31.9159 20.5592
391 1 Ar 22.9129 0.15872 23.7712
392 1 Ar 22.3779 2.47329 31.4291
393 1 Ar 21.4357 2.83113 3.92796
394 1 Ar 21.7441 1.62816 7.45049
395 1 Ar 22.6931 3.20983 10.5993
396 1 Ar 22.9804 3.3393 14.4441
397 1 Ar 21.3884 3.41868 17.8725
398 1 Ar 22.1381 3.85973 21.6496
399 1 Ar 21.8687 3.97163 28.5419
400 1 Ar 20.5899 5.49756 31.4474
401 1 Ar 22.1138 7.85857 2.79443
402 1 Ar 22.0987 6.22027 6.35544
403 1 Ar 21.1921 7.00644 10.4465
404 1 Ar 21.2534 7.07541 14.2784
405 1 Ar 21.4171 7.35753 17.5574
406 1 Ar 21.972 7.66307 21.7719
407 1 Ar 21.2252 6.7622 25.1579
408 1 Ar 21.2979 9.85324 31.9744
409 1 Ar 20.9019 11.0767 3.72162
410 1 Ar 20.8991 9.99243 7.57733
411 1 Ar 22.3648 10.5885 10.7462
412 1 Ar 21.141 10.8914 14.266
413 1 Ar 21.5556 10.664 17.5113
414 1 Ar 22.2589 11.2511 21.6098
415 1 Ar 21.4729 10.7078 24.9339
416 1 Ar 21.9179 13.4898 0.31392
417 1 Ar 21.4001 14.6846 3.78363
418 1 Ar 20.8332 13.4441 7.06454
419 1 Ar 21.298 14.189 10.8218
420 1 Ar 23.0881 14.6949 15.1409
421 1 Ar 21.2057 14.5021 18.0807
422 1 Ar 22.6731 14.8054 21.3878
423 1 Ar 20.3702 14.0771 24.7541
424 1 Ar 21.1768 17.1106 31.0237
425 1 Ar 21.3902 18.02 2.92415
426 1 Ar 21.0999 17.1141 6.49073
427 1 Ar 21.3879 17.9362 9.63523
428 1 Ar 20.7942 17.9336 13.6841
429 1 Ar 22.2389 17.6403 17.9536
430 1 Ar 21.3173 18.247 21.2691
431 1 Ar 21.558 17.6354 24.9085
432 1 Ar 22.2781 21.168 29.6501
433 1 Ar 21.2799 21.8224 3.32304
434 1 Ar 21.0386 21.719 7.84587
435 1 Ar 20.2593 21.6418 11.273
436 1 Ar 21.8052 21.3998 14.8363
437 1 Ar 21.2966 21.517 18.1529
438 1 Ar 21.4757 21.3986 22.3751
439 1 Ar 20.0631 22.6372 27.2884
440 1 Ar 21.0834 25.5259 31.9022
441 1 Ar 20.6929 25.9974 3.56008
442 1 Ar 21.456 25.1082 6.84536