ITEM: TIMESTEP
-1
ITEM: NUMBER OF ATOMS
500
ITEM: BOX BOUNDS pp pp pp
0 27.9504
0 27.9504
0 27.9504
ITEM: ATOMS id type element xu yu zu
0 1 Ar 0 0 0
1 1 Ar 0 0 3.1056
2 1 Ar 0 0 6.2112
3 1 Ar 0 0 9.3168
4 1 Ar 0 0 12.4224
5 1 Ar 0 0 15.528
6 1 Ar 0 0 18.6336
7 1 Ar 0 0 21.7392
8 1 Ar 0 3.1056 0
9 1 Ar 0 3.1056 3.1056
10 1 Ar 0 3.1056 6.2112
11 1 Ar 0 3.1056 9.3168
12 1 Ar 0 3.1056 12.4224
13 1 Ar 0 3.1056 15.528
14 1 Ar 0 3.1056 18.6336
15 1 Ar 0 3.1056 21.7392
16 1 Ar 0 6.2112 0
17 1 Ar 0 6.2112 3.1056
18 1 Ar 0 6.2112 6.2112
19 1 Ar 0 6.2112 9.3168
20 1 Ar 0 6.2112 12.4224
21 1 Ar 0 6.2112 15.528
22 1 Ar 0 6.2112 18.6336
23 1 Ar 0 6.2112 21.7392
24 1 Ar 0 9.3168 0
25 1 Ar 0 9.3168 3.1056
26 1 Ar 0 9.3168 6.2112
27 1 Ar 0 9.3168 9.3168
28 1 Ar 0 9.3168 12.4224
29 1 Ar 0 9.3168 15.528
30 1 Ar 0 9.3168 18.6336
31 1 Ar 0 9.3168 21.7392
32 1 Ar 0 12.4224 0
33 1 Ar 0 12.4224 3.1056
34 1 Ar 0 12.4224 6.2112
35 1 Ar 0 12.4224 9.3168
36 1 Ar 0 12.4224 12.4224
37 1 Ar 0 12.4224 15.528
38 1 Ar 0 12.4224 18.6336
39 1 Ar 0 12.4224 21.7392
40 1 Ar 0 15.528 0
41 1 Ar 0 15.528 3.1056
42 1 Ar 0 15.528 6.2112
43 1 Ar 0 15.528 9.3168
44 1 Ar 0 15.528 12.4224
45 1 Ar 0 15.528 15.528
46 1 Ar 0 15.528 18.6336
47 1 Ar 0 15.528 21.7392
48 1 Ar 0 18.6336 0
49 1 Ar 0 18.6336 3.1056
50 1 Ar 0 18.6336 6.2112
51 1 Ar 0 18.6336 9.3168
52 1 Ar 0 18.6336 12.4224
53 1 Ar 0 18.6336 15.528
54 1 Ar 0 18.6336 18.6336
55 1 Ar 0 18.6336 21.7392
56 1 Ar 0 21.7392 0
57 1 Ar 0 21.7392 3.1056
58 1 Ar 0 21.7392 6.2112
59 1 Ar 0 21.7392 9.3168
60 1 Ar 0 21.7392 12.4224
61 1 Ar 0 21.7392 15.528
62 1 Ar 0 21.7392 18.6336
63 1 Ar 0 21.7392 21.7392
64 1 Ar 3.1056 0 0
65 1 Ar 3.1056 0 3.1056
66 1 Ar 3.1056 0 6.2112
67 1 Ar 3.1056 0 9.3168
68 1 Ar 3.1056 0 12.4224
69 1 Ar 3.1056 0 15.528
70 1 Ar 3.1056 0 18.6336
71 1 Ar 3.1056 0 21.7392
72 1 Ar 3.1056 3.1056 0
73 1 Ar 3.1056 3.1056 3.1056
74 1 Ar 3.1056 3.1056 6.2112
75 1 Ar 3.1056 3.1056 9.3168
76 1 Ar 3.1056 3.1056 12.4224
77 1 Ar 3.1056 3.1056 15.528
78 1 Ar 3.1056 3.1056 18.6336
79 1 Ar 3.1056 3.1056 21.7392
80 1 Ar 3.1056 6.2112 0
81 1 Ar 3.1056 6.2112 3.1056
82 1 Ar 3.1056 6.2112 6.2112
83 1 Ar 3.1056 6.2112 9.3168
84 1 Ar 3.1056 6.2112 12.4224
85 1 Ar 3.1056 6.2112 15.528
86 1 Ar 3.1056 6.2112 18.6336
87 1 Ar 3.1056 6.2112 21.7392
88 1 Ar 3.1056 9.3168 0
89 1 Ar 3.1056 9.3168 3.1056
90 1 Ar 3.1056 9.3168 6.2112
91 1 Ar 3.1056 9.3168 9.3168
92 1 Ar 3.1056 9.3168 12.4224
93 1 Ar 3.1056 9.3168 15.528
94 1 Ar 3.1056 9.3168 18.6336
95 1 Ar 3.1056 9.3168 21.7392
96 1 Ar 3.1056 12.4224 0
97 1 Ar 3.1056 12.4224 3.1056
98 1 Ar 3.1056 12.4224 6.2112
99 1 Ar 3.1056 12.4224 9.3168
100 1 Ar 3.1056 12.4224 12.4224
101 1 Ar 3.1056 12.4224 15.528
102 1 Ar 3.1056 12.4224 18.6336
103 1 Ar 3.1056 12.4224 21.7392
104 1 Ar 3.1056 15.528 0
105 1 Ar 3.1056 15.528 3.1056
106 1 Ar 3.1056 15.528 6.2112
107 1 Ar 3.1056 15.528 9.3168
108 1 Ar 3.1056 15.528 12.4224
109 1 Ar 3.1056 15.528 15.528
110 1 Ar 3.1056 15.528 18.6336
111 1 Ar 3.1056 15.528 21.7392
112 1 Ar 3.1056 18.6336 0
113 1 Ar 3.1056 18.6336 3.1056
114 1 Ar 3.1056 18.6336 6.2112
115 1 Ar 3.1056 18.6336 9.3168
116 1 Ar 3.1056 18.6336 12.4224
117 1 Ar 3.1056 18.6336 15.528
118 1 Ar 3.1056 18.6336 18.6336
119 1 Ar 3.1056 18.6336 21.7392
120 1 Ar 3.1056 21.7392 0
121 1 Ar 3.1056 21.7392 3.1056
122 1 Ar 3.1056 21.7392 6.2112
123 1 Ar 3.1056 21.7392 9.3168
124 1 Ar 3.1056 21.7392 12.4224
125 1 Ar 3.1056 21.7392 15.528
126 1 Ar 3.1056 21.7392 18.6336
127 1 Ar 3.1056 21.7392 21.7392
128 1 Ar 6.2112 0 0
129 1 Ar 6.2112 0 3.1056
130 1 Ar 6.2112 0 6.2112
131 1 Ar 6.2112 0 9.3168
132 1 Ar 6.2112 0 12.4224
133 1 Ar 6.2112 0 15.528
134 1 Ar 6.2112 0 18.6336
135 1 Ar 6.2112 0 21.7392
136 1 Ar 6.2112 3.1056 0
137 1 Ar 6.2112 3.1056 3.1056
138 1 Ar 6.2112 3.1056 6.2112
139 1 Ar 6.2112 3.1056 9.3168
140 1 Ar 6.2112 3.1056 12.4224
141 1 Ar 6.2112 3.1056 15.528
142 1 Ar 6.2112 3.1056 18.6336
143 1 Ar 6.2112 3.1056 21.7392
144 1 Ar 6.2112 6.2112 0
145 1 Ar 6.2112 6.2112 3.1056
146 1 Ar 6.2112 6.2112 6.2112
147 1 Ar 6.2112 6.2112 9.3168
148 1 Ar 6.2112 6.2112 12.4224
149 1 Ar 6.2112 6.2112 15.528
150 1 Ar 6.2112 6.2112 18.6336
151 1 Ar 6.2112 6.2112 21.7392
152 1 Ar 6.2112 9.3168 0
153 1 Ar 6.2112 9.3168 3.1056
154 1 Ar 6.2112 9.3168 6.2112
155 1 Ar 6.2112 9.3168 9.3168
156 1 Ar 6.2112 9.3168 12.4224
157 1 Ar 6.2112 9.3168 15.528
158 1 Ar 6.2112 9.3168 18.6336
159 1 Ar 6.2112 9.3168 21.7392
160 1 Ar 6.2112 12.4224 0
161 1 Ar 6.2112 12.4224 3.1056
162 1 Ar 6.2112 12.4224 6.2112
163 1 Ar 6.2112 12.4224 9.3168
164 1 Ar 6.2112 12.4224 12.4224
165 1 Ar 6.2112 12.4224 15.528
166 1 Ar 6.2112 12.4224 18.6336
167 1 Ar 6.2112 12.4224 21.7392
168 1 Ar 6.2112 15.528 0
169 1 Ar 6.2112 15.528 3.1056
170 1 Ar 6.2112 15.528 6.2112
171 1 Ar 6.2112 15.528 9.3168
172 1 Ar 6.2112 15.528 12.4224
173 1 Ar 6.2112 15.528 15.528
174 1 Ar 6.2112 15.528 18.6336
175 1 Ar 6.2112 15.528 21.7392
176 1 Ar 6.2112 18.6336 0
177 1 Ar 6.2112 18.6336 3.1056
178 1 Ar 6.2112 18.6336 6.2112
179 1 Ar 6.2112 18.6336 9.3168
180 1 Ar 6.2112 18.6336 12.4224
181 1 Ar 6.2112 18.6336 15.528
182 1 Ar 6.2112 18.6336 18.6336
183 1 Ar 6.2112 18.6336 21.7392
184 1 Ar 6.2112 21.7392 0
185 1 Ar 6.2112 21.7392 3.1056
186 1 Ar 6.2112 21.7392 6.2112
187 1 Ar 6.2112 21.7392 9.3168
188 1 Ar 6.2112 21.7392 12.4224
189 1 Ar 6.2112 21.7392 15.528
190 1 Ar 6.2112 21.7392 18.6336
191 1 Ar 6.2112 21.7392 21.7392
192 1 Ar 9.3168 0 0
193 1 Ar 9.3168 0 3.1056
194 1 Ar 9.3168 0 6.2112
195 1 Ar 9.3168 0 9.3168
196 1 Ar 9.3168 0 12.4224
197 1 Ar 9.3168 0 15.528
198 1 Ar 9.3168 0 18.6336
199 1 Ar 9.3168 0 21.7392
200 1 Ar 9.3168 3.1056 0
201 1 Ar 9.3168 3.1056 3.1056
202 1 Ar 9.3168 3.1056 6.2112
203 1 Ar 9.3168 3.1056 9.3168
204 1 Ar 9.3168 3.1056 12.4224
205 1 Ar 9.3168 3.1056 15.528
206 1 Ar 9.3168 3.1056 18.6336
207 1 Ar 9.3168 3.1056 21.7392
208 1 Ar 9.3168 6.2112 0
209 1 Ar 9.3168 6.2112 3.1056
210 1 Ar 9.3168 6.2112 6.2112
211 1 Ar 9.3168 6.2112 9.3168
212 1 Ar 9.3168 6.2112 12.4224
213 1 Ar 9.3168 6.2112 15.528
214 1 Ar 9.3168 6.2112 18.6336
215 1 Ar 9.3168 6.2112 21.7392
216 1 Ar 9.3168 9.3168 0
217 1 Ar 9.3168 9.3168 3.1056
218 1 Ar 9.3168 9.3168 6.2112
219 1 Ar 9.3168 9.3168 9.3168
220 1 Ar 9.3168 9.3168 12.4224
221 1 Ar 9.3168 9.3168 15.528
222 1 Ar 9.3168 9.3168 18.6336
223 1 Ar 9.3168 9.3168 21.7392
224 1 Ar 9.3168 12.4224 0
225 1 Ar 9.3168 12.4224 3.1056
226 1 Ar 9.3168 12.4224 6.2112
227 1 Ar 9.3168 12.4224 9.3168
228 1 Ar 9.3168 12.4224 12.4224
229 1 Ar 9.3168 12.4224 15.528
230 1 Ar 9.3168 12.4224 18.6336
231 1 Ar 9.3168 12.4224 21.7392
232 1 Ar 9.3168 15.528 0
233 1 Ar 9.3168 15.528 3.1056
234 1 Ar 9.3168 15.528 6.2112
235 1 Ar 9.3168 15.528 9.3168
236 1 Ar 9.3168 15.528 12.4224
237 1 Ar 9.3168 15.528 15.528
238 1 Ar 9.3168 15.528 18.6336
239 1 Ar 9.3168 15.528 21.7392
240 1 Ar 9.3168 18.6336 0
241 1 Ar 9.3168 18.6336 3.1056
242 1 Ar 9.3168 18.6336 6.2112
243 1 Ar 9.3168 18.6336 9.3168
244 1 Ar 9.3168 18.6336 12.4224
245 1 Ar 9.3168 18.6336 15.528
246 1 Ar 9.3168 18.6336 18.6336
247 1 Ar 9.3168 18.6336 21.7392
248 1 Ar 9.3168 21.7392 0
249 1 Ar 9.3168 21.7392 3.1056
250 1 Ar 9.3168 21.7392 6.2112
251 1 Ar 9.3168 21.7392 9.3168
252 1 Ar 9.3168 21.7392 12.4224
253 1 Ar 9.3168 21.7392 15.528
254 1 Ar 9.3168 21.7392 18.6336
255 1 Ar 9.3168 21.7392 21.7392
256 1 Ar 12.4224 0 0
257 1 Ar 12.4224 0 3.1056
258 1 Ar 12.4224 0 6.2112
259 1 Ar 12.4224 0 9.3168
260 1 Ar 12.4224 0 12.4224
261 1 Ar 12.4224 0 15.528
262 1 Ar 12.4224 0 18.6336
263 1 Ar 12.4224 0 21.7392
264 1 Ar 12.4224 3.1056 0
265 1 Ar 12.4224 3.1056 3.1056
266 1 Ar 12.4224 3.1056 6.2112
267 1 Ar 12.4224 3.1056 9.3168
268 1 Ar 12.4224 3.1056 12.4224
269 1 Ar 12.4224 3.1056 15.528
270 1 Ar 12.4224 3.1056 18.6336
271 1 Ar 12.4224 3.1056 21.7392
272 1 Ar 12.4224 6.2112 0
273 1 Ar 12.4224 6.2112 3.1056
274 1 Ar 12.4224 6.2112 6.2112
275 1 Ar 12.4224 6.2112 9.3168
276 1 Ar 12.4224 6.2112 12.4224
277 1 Ar 12.4224 6.2112 15.528
278 1 Ar 12.4224 6.2112 18.6336
279 1 Ar 12.4224 6.2112 21.7392
280 1 Ar 12.4224 9.3168 0
281 1 Ar 12.4224 9.3168 3.1056
282 1 Ar 12.4224 9.3168 6.2112
283 1 Ar 12.4224 9.3168 9.3168
284 1 Ar 12.4224 9.3168 12.4224
285 1 Ar 12.4224 9.3168 15.528
286 1 Ar 12.4224 9.3168 18.6336
287 1 Ar 12.4224 9.3168 21.7392
288 1 Ar 12.4224 12.4224 0
289 1 Ar 12.4224 12.4224 3.1056
290 1 Ar 12.4224 12.4224 6.2112
291 1 Ar 12.4224 12.4224 9.3168
292 1 Ar 12.4224 12.4224 12.4224
293 1 Ar 12.4224 12.4224 15.528
294 1 Ar 12.4224 12.4224 18.6336
295 1 Ar 12.4224 12.4224 21.7392
296 1 Ar 12.4224 15.528 0
297 1 Ar 12.4224 15.528 3.1056
298 1 Ar 12.4224 15.528 6.2112
299 1 Ar 12.4224 15.528 9.3168
300 1 Ar 12.4224 15.528 12.4224
301 1 Ar 12.4224 15.528 15.528
302 1 Ar 12.4224 15.528 18.6336
303 1 Ar 12.4224 15.528 21.7392
304 1 Ar 12.4224 18.6336 0
305 1 Ar 12.4224 18.6336 3.1056
306 1 Ar 12.4224 18.6336 6.2112
307 1 Ar 12.4224 18.6336 9.3168
308 1 Ar 12.4224 18.6336 12.4224
309 1 Ar 12.4224 18.6336 15.528
310 1 Ar 12.4224 18.6336 18.6336
311 1 Ar 12.4224 18.6336 21.7392
312 1 Ar 12.4224 21.7392 0
313 1 Ar 12.4224 21.7392 3.1056
314 1 Ar 12.4224 21.7392 6.2112
315 1 Ar 12.4224 21.7392 9.3168
316 1 Ar 12.4224 21.7392 12.4224
317 1 Ar 12.4224 21.7392 15.528
318 1 Ar 12.4224 21.7392 18.6336
319 1 Ar 12.4224 21.7392 21.7392
320 1 Ar 15.528 0 0
321 1 Ar 15.528 0 3.1056
322 1 Ar 15.528 0 6.2112
323 1 Ar 15.528 0 9.3168
324 1 Ar 15.528 0 12.4224
325 1 Ar 15.528 0 15.528
326 1 Ar 15.528 0 18.6336
327 1 Ar 15.528 0 21.7392
328 1 Ar 15.528 3.1056 0
329 1 Ar 15.528 3.1056 3.1056
330 1 Ar 15.528 3.1056 6.2112
331 1 Ar 15.528 3.1056 9.3168
332 1 Ar 15.528 3.1056 12.4224
333 1 Ar 15.528 3.1056 15.528
334 1 Ar 15.528 3.1056 18.6336
335 1 Ar 15.528 3.1056 21.7392
336 1 Ar 15.528 6.2112 0
337 1 Ar 15.528 6.2112 3.1056
338 1 Ar 15.528 6.2112 6.2112
339 1 Ar 15.528 6.2112 9.3168
340 1 Ar 15.528 6.2112 12.4224
341 1 Ar 15.528 6.2112 15.528
342 1 Ar 15.528 6.2112 18.6336
343 1 Ar 15.528 6.2112 21.7392
344 1 Ar 15.528 9.3168 0
345 1 Ar 15.528 9.3168 3.1056
346 1 Ar 15.528 9.3168 6.2112
347 1 Ar 15.528 9.3168 9.3168
348 1 Ar 15.528 9.3168 12.4224
349 1 Ar 15.528 9.3168 15.528
350 1 Ar 15.528 9.3168 18.6336
351 1 Ar 15.528 9.3168 21.7392
352 1 Ar 15.528 12.4224 0
353 1 Ar 15.528 12.4224 3.1056
354 1 Ar 15.528 12.4224 6.2112
355 1 Ar 15.528 12.4224 9.3168
356 1 Ar 15.528 12.4224 12.4224
357 1 Ar 15.528 12.4224 15.528
358 1 Ar 15.528 12.4224 18.6336
359 1 Ar 15.528 12.4224 21.7392
360 1 Ar 15.528 15.528 0
361 1 Ar 15.528 15.528 3.1056
362 1 Ar 15.528 15.528 6.2112
363 1 Ar 15.528 15.528 9.3168
364 1 Ar 15.528 15.528 12.4224
365 1 Ar 15.528 15.528 15.528
366 1 Ar 15.528 15.528 18.6336
367 1 Ar 15.528 15.528 21.7392
368 1 Ar 15.528 18.6336 0
369 1 Ar 15.528 18.6336 3.1056
370 1 Ar 15.528 18.6336 6.2112
371 1 Ar 15.528 18.6336 9.3168
372 1 Ar 15.528 18.6336 12.4224
373 1 Ar 15.528 18.6336 15.528
374 1 Ar 15.528 18.6336 18.6336
375 1 Ar 15.528 18.6336 21.7392
376 1 Ar 15.528 21.7392 0
377 1 Ar 15.528 21.7392 3.1056
378 1 Ar 15.528 21.7392 6.2112
379 1 Ar 15.528 21.7392 9.3168
380 1 Ar 15.528 21.7392 12.4224
381 1 Ar 15.528 21.7392 15.528
382 1 Ar 15.528 21.7392 18.6336
383 1 Ar 15.528 21.7392 21.7392
384 1 Ar 18.6336 0 0
385 1 Ar 18.6336 0 3.1056
386 1 Ar 18.6336 0 6.2112
387 1 Ar 18.6336 0 9.3168
388 1 Ar 18.6336 0 12.4224
389 1 Ar 18.6336 0 15.528
390 1 Ar 18.6336 0 18.6336
391 1 Ar 18.6336 0 21.7392
392 1 Ar 18.6336 3.1056 0
393 1 Ar 18.6336 3.1056 3.1056
394 1 Ar 18.6336 3.1056 6.2112
395 1 Ar 18.6336 3.1056 9.3168
396 1 Ar 18.6336 3.1056 12.4224
397 1 Ar 18.6336 3.1056 15.528
398 1 Ar 18.6336 3.1056 18.6336
399 1 Ar 18.6336 3.1056 21.7392
400 1 Ar 18.6336 6.2112 0
401 1 Ar 18.6336 6.2112 3.1056
402 1 Ar 18.6336 6.2112 6.2112
403 1 Ar 18.6336 6.2112 9.3168
404 1 Ar 18.6336 6.2112 12.4224
405 1 Ar 18.6336 6.2112 15.528
406 1 Ar 18.6336 6.2112 18.6336
407 1 Ar 18.6336 6.2112 21.7392
408 1 Ar 18.6336 9.3168 0
409 1 Ar 18.6336 9.3168 3.1056
410 1 Ar 18.6336 9.3168 6.2112
411 1 Ar 18.6336 9.3168 9.3168
412 1 Ar 18.6336 9.3168 12.4224
413 1 Ar 18.6336 9.3168 15.528
414 1 Ar 18.6336 9.3168 18.6336
415 1 Ar 18.6336 9.3168 21.7392
416 1 Ar 18.6336 12.4224 0
417 1 Ar 18.6336 12.4224 3.1056
418 1 Ar 18.6336 12.4224 6.2112
419 1 Ar 18.6336 12.4224 9.3168
420 1 Ar 18.6336 12.4224 12.4224
421 1 Ar 18.6336 12.4224 15.528
422 1 Ar 18.6336 12.4224 18.6336
423 1 Ar 18.6336 12.4224 21.7392
424 1 Ar 18.6336 15.528 0
425 1 Ar 18.6336 15.528 3.1056
426 1 Ar 18.6336 15.528 6.2112
427 1 Ar 18.6336 15.528 9.3168
428 1 Ar 18.6336 15.528 12.4224
429 1 Ar 18.6336 15.528 15.528
430 1 Ar 18.6336 15.528 18.6336
431 1 Ar 18.6336 15.528 21.7392
432 1 Ar 18.6336 18.6336 0
433 1 Ar 18.6336 18.6336 3.1056
434 1 Ar 18.6336 18.6336 6.2112
435 1 Ar 18.6336 18.6336 9.3168
436 1 Ar 18.6336 18.6336 12.4224
437 1 Ar 18.6336 18.6336 15.528
438 1 Ar 18.6336 18.6336 18.6336
439 1 Ar 18.6336 18.6336 21.7392
440 1 Ar 18.6336 21.7392 0
441 1 Ar 18.6336 21.7392 3.1056
442 1 Ar 18.6336 21.7392 6.2112
443 1 Ar 18.6336 21.7392 9.3168
444 1 Ar 18.6336 21.7392 12.4224
445 1 Ar 18.6336 21.7392 15.528
446 1 Ar 18.6336 21.7392 18.6336
447 1 Ar 18.6336 21.7392 21.7392
448 1 Ar 21.7392 0 0
449 1 Ar 21.7392 0 3.1056
450 1 Ar 21.7392 0 6.2112
451 1 Ar 21.7392 0 9.3168
452 1 Ar 21.7392 0 12.4224
453 1 Ar 21.7392 0 15.528
454 1 Ar 21.7392 0 18.6336
455 1 Ar 21.7392 0 21.7392
456 1 Ar 21.7392 3.1056 0
457 1 Ar 21.7392 3.1056 3.1056
458 1 Ar 21.7392 3.1056 6.2112
459 1 Ar 21.7392 3.1056 9.3168
460 1 Ar 21.7392 3.1056 12.4224
461 1 Ar 21.7392 3.1056 15.528
462 1 Ar 21.7392 3.1056 18.6336
463 1 Ar 21.7392 3.1056 21.7392
464 1 Ar 21.7392 6.2112 0
465 1 Ar 21.7392 6.2112 3.1056
466 1 Ar 21.7392 6.2112 6.2112
467 1 Ar 21.7392 6.2112 9.3168
468 1 Ar 21.7392 6.2112 12.4224
469 1 Ar 21.7392 6.2112 15.528
470 1 Ar 21.7392 6.2112 18.6336
471 1 Ar 21.7392 6.2112 21.7392
472 1 Ar 21.7392 9.3168 0
473 1 Ar 21.7392 9.3168 3.1056
474 1 Ar 21.7392 9.3168 6.2112
475 1 Ar 21.7392 9.3168 9.3168
476 1 Ar 21.7392 9.3168 12.4224
477 1 Ar 21.7392 9.3168 15.528
478 1 Ar 21.7392 9.3168 18.6336
479 1 Ar 21.7392 9.3168 21.7392
480 1 Ar 21.7392 12.4224 0
481 1 Ar 21.7392 12.4224 3.1056
482 1 Ar 21.7392 12.4224 6.2112
483 1 Ar 21.7392 12.4224 9.3168
484 1 Ar 21.7392 12.4224 12.4224
485 1 Ar 21.7392 12.4224 15.528
486 1 Ar 21.7392 12.4224 18.6336
487 1 Ar 21.7392 12.4224 21.7392
488 1 Ar 21.7392 15.528 0
489 1 Ar 21.7392 15.528 3.1056
490 1 Ar 21.7392 15.528 6.2112
491 1 Ar 21.7392 15.528 9.3168
492 1 Ar 21.7392 15.528 12.4224
493 1 Ar 21.7392 15.528 15.528
494 1 Ar 21.7392 15.528 18.6336
495 1 Ar 21.7392 15.528 21.7392
496 1 Ar 21.7392 18.6336 0
497 1 Ar 21.7392 18.6336 3.1056
498 1 Ar 21.7392 18.6336 6.2112
499 1 Ar 21.7392 18.6336 9.3168
ITEM: TIMESTEP
19999
ITEM: NUMBER OF ATOMS
500
ITEM: BOX BOUNDS pp pp pp
0 27.9504
0 27.9504
0 27.9504
ITEM: ATOMS id type element xu yu zu
0 1 Ar 26.4246 26.8842 26.6103
1 1 Ar 26.3949 27.0916 2.61958
2 1 Ar 0.0662525 26.4949 5.93762
3 1 Ar 26.2512 27.6875 9.3997
4 1 Ar 27.4586 26.2506 12.5661
5 1 Ar 27.2688 27.5371 15.6562
6 1 Ar 27.4734 26.755 18.9802
7 1 Ar 27.0114 27.0046 23.0152
8 1 Ar 27.2212 2.56137 27.1003
9 1 Ar 26.8061 2.81048 2.93228
10 1 Ar 27.6075 1.80063 6.32663
11 1 Ar 26.5985 3.18448 9.37817
12 1 Ar 27.5656 2.11864 12.4795
13 1 Ar 27.1832 2.89063 15.6829
14 1 Ar 26.2267 2.38723 18.7158
15 1 Ar 27.784 2.94729 21.677
16 1 Ar 26.3137 5.89951 0.683529
17 1 Ar 0.316603 5.86543 3.62864
18 1 Ar 25.528 6.11663 5.60353
19 1 Ar 27.7739 6.06947 8.89973
20 1 Ar 26.8353 5.82773 12.3263
21 1 Ar 26.9061 6.03555 16.0205
22 1 Ar 27.3153 5.88447 19.3944
23 1 Ar 26.8391 5.99176 23.0036
24 1 Ar 27.6368 8.71328 27.2518
25 1 Ar 26.0145 8.68487 2.65142
26 1 Ar 27.5868 8.72701 5.98558
27 1 Ar 26.7102 9.23761 9.20472
28 1 Ar 27.4577 9.10876 12.4514
29 1 Ar 27.7925 9.15106 15.5883
30 1 Ar 27.5863 9.12378 19.0272
31 1 Ar 27.4544 9.34912 22.4012
32 1 Ar 26.7595 12.0686 27.3667
33 1 Ar 25.8393 12.6366 3.17509
34 1 Ar 27.6337 12.553 5.98324
35 1 Ar 27.4424 12.3813 9.2239
36 1 Ar 27.8402 12.7031 12.3333
37 1 Ar 25.7344 11.5711 14.4855
38 1 Ar 27.4131 12.6743 18.4138
39 1 Ar 26.3867 12.4626 21.6269
40 1 Ar 27.4286 15.6837 26.955
41 1 Ar 27.5535 16.0073 2.46627
42 1 Ar 26.981 15.8121 6.10497
43 1 Ar 27.0588 15.3493 9.58261
44 1 Ar 26.9148 15.9011 12.7131
45 1 Ar 26.3699 15.5806 16.0603
46 1 Ar 27.647 15.5565 19.6797
47 1 Ar 26.5042 15.5548 22.9315
48 1 Ar 27.4885 19.1393 26.6422
49 1 Ar 27.6567 19.5378 2.74845
50 1 Ar 26.5454 19.3613 5.84193
51 1 Ar 27.6216 18.5766 9.41646
52 1 Ar 27.4896 19.3423 12.6429
53 1 Ar 26.4815 18.7588 15.6815
54 1 Ar 26.8184 18.8145 19.1364
55 1 Ar 0.26952 18.6796 22.825
56 1 Ar 26.493 23.1597 26.236
57 1 Ar 27.0171 22.7331 2.6896
58 1 Ar 27.0119 23.5838 5.87301
59 1 Ar 0.043131 22.3653 8.81541
60 1 Ar 27.0011 22.8067 12.1225
61 1 Ar 27.0712 23.6946 15.6563
62 1 Ar 27.6164 22.1048 18.649
63 1 Ar 27.2567 22.9782 22.2797
64 1 Ar 2.78054 27.0488 0.331059
65 1 Ar 1.7785 27.8771 3.46293
66 1 Ar 3.29996 27.4132 6.39885
67 1 Ar 1.72244 27.1833 9.58508
68 1 Ar 2.79011 27.1034 12.5056
69 1 Ar 2.53604 27.4928 15.8398
70 1 Ar 2.86369 26.9805 19.0854
71 1 Ar 2.59337 27.5852 22.3427
72 1 Ar 2.67114 2.27965 26.196
73 1 Ar 2.44714 3.30456 2.12091
74 1 Ar 2.84037 2.72172 5.28105
75 1 Ar 2.28592 2.61898 9.02576
76 1 Ar 3.16331 2.70837 12.4255
77 1 Ar 2.92109 2.89217 16.0121
78 1 Ar 1.94537 2.20045 18.9778
79 1 Ar 3.11519 2.92502 22.1859
80 1 Ar 1.99534 6.00727 27.8199
81 1 Ar 3.38991 6.28303 2.94734
82 1 Ar 2.83798 6.25823 6.41297
83 1 Ar 2.81862 5.83698 9.45674
84 1 Ar 2.58718 5.98763 12.5438
85 1 Ar 2.97308 6.12494 15.6003
86 1 Ar 2.46675 5.71239 19.0459
87 1 Ar 2.1356 5.82698 23.7091
88 1 Ar 3.29722 8.85276 26.6649
89 1 Ar 2.76573 9.44354 2.48979
90 1 Ar 3.11439 9.52213 5.40957
91 1 Ar 2.07683 9.23742 9.10442
92 1 Ar 3.17383 9.22831 12.1765
93 1 Ar 3.19651 9.37578 15.5212
94 1 Ar 3.12979 9.04637 19.1486
95 1 Ar 2.67635 9.33956 22.5878
96 1 Ar 2.52714 12.4286 27.5156
97 1 Ar 1.30542 12.5535 3.23116
98 1 Ar 3.20147 12.7823 6.0363
99 1 Ar 2.73101 12.4901 9.18831
100 1 Ar 3.26324 12.5016 12.224
101 1 Ar 2.46439 12.4271 15.3932
102 1 Ar 2.7472 12.2161 18.6442
103 1 Ar 1.94294 12.7071 22.1008
104 1 Ar 2.76789 15.9706 27.1417
105 1 Ar 3.0017 15.4384 2.39653
106 1 Ar 2.95157 15.8892 5.69754
107 1 Ar 2.58715 15.4747 8.91671
108 1 Ar 2.84711 15.8771 12.5423
109 1 Ar 1.79604 15.5598 15.7565
110 1 Ar 3.11645 15.3551 18.7285
111 1 Ar 2.59734 16.0482 22.0709
112 1 Ar 2.92534 19.0239 27.8759
113 1 Ar 2.87229 18.6888 3.0822
114 1 Ar 2.17537 19.306 6.56475
115 1 Ar 3.25567 18.5757 9.3017
116 1 Ar 2.95078 19.2627 12.4627
117 1 Ar 2.20663 18.7174 15.3947
118 1 Ar 2.60463 18.762 18.592
119 1 Ar 3.6207 19.4548 21.6942
120 1 Ar 2.1883 22.749 27.2756
121 1 Ar 2.63223 22.16 2.43253
122 1 Ar 3.1684 23.4912 5.90358
123 1 Ar 3.22329 21.805 8.93298
124 1 Ar 2.87555 23.1476 11.9199
125 1 Ar 2.56277 22.0712 15.5036
126 1 Ar 3.20802 22.1988 19.1991
127 1 Ar 2.65985 22.072 23.9106
128 1 Ar 5.92055 27.4991 27.0191
129 1 Ar 5.34962 27.277 2.48436
130 1 Ar 6.5304 27.8214 5.5836
131 1 Ar 5.36376 26.4645 9.11994
132 1 Ar 6.11634 27.8048 12.4112
133 1 Ar 5.84502 27.1693 15.87
134 1 Ar 6.44064 26.821 19.1296
135 1 Ar 5.9232 26.5626 22.2671
136 1 Ar 5.87628 2.74785 27.6574
137 1 Ar 5.71506 2.58802 3.29731
138 1 Ar 6.03433 3.04756 6.47664
139 1 Ar 5.53949 2.0289 9.44155
140 1 Ar 6.48561 3.11967 12.6098
141 1 Ar 6.07357 2.81738 15.7582
142 1 Ar 5.43479 1.99665 19.4571
143 1 Ar 6.13655 2.1365 23.0064
144 1 Ar 6.35233 5.71151 27.0836
145 1 Ar 6.50491 5.91747 2.59112
146 1 Ar 6.132 6.25522 5.82571
147 1 Ar 5.93694 5.94619 9.12545
148 1 Ar 5.82141 6.16951 12.5678
149 1 Ar 5.95797 6.22648 15.8179
150 1 Ar 6.42946 5.37386 19.1965
151 1 Ar 5.53999 5.56308 22.638
152 1 Ar 6.63289 9.26436 27.4471
153 1 Ar 5.88307 9.39535 3.02584
154 1 Ar 6.18611 9.29839 6.28755
155 1 Ar 5.97694 9.24728 9.29693
156 1 Ar 6.2112 9.3168 12.4224
157 1 Ar 6.32687 9.4397 15.7402
158 1 Ar 6.35395 8.98042 18.698
159 1 Ar 5.94527 8.78253 22.4841
160 1 Ar 5.85024 12.2844 27.0044
161 1 Ar 4.90391 12.715 2.65368
162 1 Ar 6.20019 12.4106 6.07416
163 1 Ar 6.11046 12.5134 9.12876
164 1 Ar 6.30486 12.7287 12.1794
165 1 Ar 5.92036 12.5106 15.5501
166 1 Ar 5.98792 12.8931 19.0005
167 1 Ar 5.68309 12.8523 23.0624
168 1 Ar 6.00415 15.938 27.1769
169 1 Ar 6.35157 15.3104 2.90765
170 1 Ar 6.2685 16.1407 6.20916
171 1 Ar 5.65194 15.8085 9.5204
172 1 Ar 5.9821 15.8505 12.7136
173 1 Ar 4.98908 15.4277 15.838
174 1 Ar 6.52989 15.9011 18.4486
175 1 Ar 5.74471 16.1957 21.7787
176 1 Ar 6.15008 19.1456 27.2203
177 1 Ar 6.25497 18.3288 2.71801
178 1 Ar 5.68635 19.6898 6.11785
179 1 Ar 6.55269 18.8066 9.24532
180 1 Ar 6.07332 18.929 12.4396
181 1 Ar 5.41724 18.6807 15.6528
182 1 Ar 6.2098 19.0702 19.4745
183 1 Ar 6.12821 18.7273 23.9569
184 1 Ar 6.022 22.7993 27.7986
185 1 Ar 5.75769 22.0153 3.76558
186 1 Ar 6.69594 24.488 6.78563
187 1 Ar 6.42188 22.2749 9.47609
188 1 Ar 6.84712 22.3315 12.6144
189 1 Ar 6.01922 22.2925 15.6289
190 1 Ar 6.41063 22.7714 19.026
191 1 Ar 6.2468 22.6524 22.7691
192 1 Ar 9.12269 26.4195 26.9525
193 1 Ar 8.97307 27.2276 2.37521
194 1 Ar 9.62971 27.0195 5.64175
195 1 Ar 9.11325 27.0595 9.0976
196 1 Ar 9.2976 0.0665403 12.5064
197 1 Ar 9.38201 27.2561 15.5949
198 1 Ar 9.50834 27.5897 18.7959
199 1 Ar 9.30253 27.0192 22.9747
200 1 Ar 9.4017 2.09115 27.6465
201 1 Ar 8.82665 3.04141 2.90813
202 1 Ar 9.32376 2.43677 6.16841
203 1 Ar 8.99969 2.70588 9.29603
204 1 Ar 9.46789 3.22366 12.218
205 1 Ar 9.41964 2.86022 15.303
206 1 Ar 8.97945 3.01783 18.6111
207 1 Ar 9.47675 2.58291 21.9989
208 1 Ar 9.24964 6.93605 27.7731
209 1 Ar 9.55919 6.23011 2.99777
210 1 Ar 9.12435 5.7501 6.28806
211 1 Ar 9.07732 5.93817 9.28823
212 1 Ar 9.26672 6.37118 12.4699
213 1 Ar 9.02141 6.28741 15.9161
214 1 Ar 9.55304 6.29359 18.9275
215 1 Ar 8.84086 5.52959 23.4318
216 1 Ar 9.47613 9.69975 25.9816
217 1 Ar 9.14331 9.35713 2.36367
218 1 Ar 9.14089 9.0096 5.69225
219 1 Ar 9.25428 9.33003 8.93923
220 1 Ar 9.56955 9.52163 12.5408
221 1 Ar 9.59344 9.33833 16.0397
222 1 Ar 9.24985 9.28567 19.6887
223 1 Ar 9.20959 9.42848 22.7513
224 1 Ar 9.00051 12.6866 27.5881
225 1 Ar 8.67228 12.5876 3.04786
226 1 Ar 9.323 11.8613 6.27045
227 1 Ar 9.43932 12.6455 9.51769
228 1 Ar 9.31835 12.8144 12.5135
229 1 Ar 9.17388 12.3765 15.6276
230 1 Ar 9.55483 12.7654 18.8226
231 1 Ar 9.02417 12.7424 21.9949
232 1 Ar 9.03813 15.8964 27.4424
233 1 Ar 9.42994 16.0304 2.7075
234 1 Ar 9.65695 15.2276 5.98149
235 1 Ar 9.08246 16.0149 9.12103
236 1 Ar 9.07342 16.1644 12.5689
237 1 Ar 8.36143 15.563 15.8347
238 1 Ar 9.1833 15.975 20.0631
239 1 Ar 8.98115 15.6521 23.5131
240 1 Ar 9.4834 19.695 26.8619
241 1 Ar 9.10828 19.3411 2.28669
242 1 Ar 8.56421 18.4514 5.71692
243 1 Ar 9.52121 19.5204 9.02673
244 1 Ar 9.28675 19.8752 12.3747
245 1 Ar 8.8922 18.6601 15.3119
246 1 Ar 9.69671 18.8654 18.5196
247 1 Ar 8.82075 19.2696 22.176
248 1 Ar 9.61857 23.0269 27.0917
249 1 Ar 9.0678 22.8511 2.80966
250 1 Ar 8.8785 21.7712 6.2781
251 1 Ar 9.57765 23.0421 10.2499
252 1 Ar 9.45827 24.603 13.2183
253 1 Ar 9.50559 21.7522 14.9887
254 1 Ar 9.67075 22.2709 18.3523
255 1 Ar 9.32272 23.6708 21.574
256 1 Ar 12.6042 27.4687 27.7349
257 1 Ar 12.2779 27.1687 3.24332
258 1 Ar 12.5151 27.7754 6.4461
259 1 Ar 12.5649 27.7778 9.70704
260 1 Ar 12.1449 26.7554 13.224
261 1 Ar 12.9429 0.123342 16.2072
262 1 Ar 12.4001 26.5771 19.4126
263 1 Ar 11.8764 26.2128 24.3741
264 1 Ar 12.43 2.59586 26.3865
265 1 Ar 12.3432 2.70459 2.39905
266 1 Ar 12.6699 2.88919 5.94972
267 1 Ar 12.3927 3.10109 9.2171
268 1 Ar 12.4706 2.52165 12.4177
269 1 Ar 12.6314 3.53512 16.0939
270 1 Ar 12.2118 1.95938 19.1309
271 1 Ar 12.4184 1.64118 23.062
272 1 Ar 12.2525 5.87195 26.8464
273 1 Ar 12.6625 5.93235 2.44776
274 1 Ar 12.3255 6.18063 5.79104
275 1 Ar 12.395 6.27145 9.41017
276 1 Ar 12.5511 5.93658 12.4685
277 1 Ar 12.0683 6.44142 15.706
278 1 Ar 12.9415 5.80709 19.3463
279 1 Ar 12.1063 5.08746 22.9639
280 1 Ar 12.6908 9.00759 27.8426
281 1 Ar 12.505 9.19897 3.07865
282 1 Ar 12.4739 9.26349 6.10129
283 1 Ar 12.4324 9.38348 9.25077
284 1 Ar 12.6316 9.18808 12.4934
285 1 Ar 13.2443 9.2681 16
286 1 Ar 12.4429 8.8861 19.307
287 1 Ar 12.483 8.54133 23.1299
288 1 Ar 12.4648 12.1037 26.8767
289 1 Ar 11.9897 12.408 2.41151
290 1 Ar 12.2414 12.3336 6.1781
291 1 Ar 12.7642 12.6648 9.46149
292 1 Ar 12.4176 12.4328 12.5532
293 1 Ar 12.3574 12.4061 15.6826
294 1 Ar 12.6026 12.3817 19.7567
295 1 Ar 12.2857 12.0971 23.3714
296 1 Ar 12.4349 15.3859 26.9598
297 1 Ar 12.6965 15.6392 2.63974
298 1 Ar 12.7212 15.4169 5.99738
299 1 Ar 12.1032 15.7907 9.06455
300 1 Ar 12.1994 15.5672 12.3241
301 1 Ar 12.072 15.442 15.4058
302 1 Ar 12.2036 15.5173 18.6706
303 1 Ar 12.0967 15.3371 22.0286
304 1 Ar 12.4175 18.4455 27.2535
305 1 Ar 12.3904 18.9939 2.67847
306 1 Ar 11.9629 18.9847 6.08157
307 1 Ar 12.6228 19.4062 9.28959
308 1 Ar 12.8379 18.8554 12.4479
309 1 Ar 12.2489 18.9615 15.6599
310 1 Ar 13.1313 19.6444 19.1255
311 1 Ar 11.7766 18.4796 23.339
312 1 Ar 13.0165 22.1505 27.3592
313 1 Ar 12.3394 22.7086 2.80238
314 1 Ar 12.2944 22.274 6.16675
315 1 Ar 12.7251 22.9281 9.22907
316 1 Ar 11.9643 22.2126 12.5906
317 1 Ar 12.843 22.8876 15.7187
318 1 Ar 12.6274 23.2784 19.3248
319 1 Ar 12.1965 21.69 22.2614
320 1 Ar 16.2115 27.0686 0.0813886
321 1 Ar 15.7076 27.5752 3.22976
322 1 Ar 15.7434 26.3259 6.45586
323 1 Ar 15.6821 27.2623 9.58284
324 1 Ar 15.5425 27.1221 12.786
325 1 Ar 16.582 27.3497 15.9984
326 1 Ar 15.4992 27.846 19.2345
327 1 Ar 14.8632 27.1422 22.9233
328 1 Ar 15.7589 2.55468 27.1672
329 1 Ar 15.5894 3.14641 2.51351
330 1 Ar 16.0345 2.25853 5.80023
331 1 Ar 15.5833 2.46177 9.06004
332 1 Ar 15.7706 2.93172 12.525
333 1 Ar 15.9321 2.94344 15.808
334 1 Ar 15.2493 3.03565 19.0214
335 1 Ar 16.0059 2.47588 22.8304
336 1 Ar 15.5434 5.60556 27.2344
337 1 Ar 15.9364 6.47313 3.07958
338 1 Ar 15.4531 6.17122 6.24771
339 1 Ar 16.0672 5.49969 9.20649
340 1 Ar 15.8591 6.12276 12.4479
341 1 Ar 15.151 6.2463 15.7504
342 1 Ar 16.214 6.2774 18.9934
343 1 Ar 15.4015 5.666 23.6886
344 1 Ar 16.0295 8.92954 26.9324
345 1 Ar 15.8244 9.52092 2.17962
346 1 Ar 16.0118 9.38211 5.49318
347 1 Ar 15.3935 8.76672 9.21691
348 1 Ar 15.9709 9.2079 12.2929
349 1 Ar 16.7115 9.20536 15.7127
350 1 Ar 15.6513 9.58255 18.7525
351 1 Ar 16.1483 9.56623 22.072
352 1 Ar 15.7255 12.2017 27.8885
353 1 Ar 15.3008 12.6718 3.05656
354 1 Ar 15.2483 12.6146 6.36319
355 1 Ar 15.9471 12.1424 9.2669
356 1 Ar 15.696 12.4222 12.6756
357 1 Ar 15.5676 12.2935 16.1195
358 1 Ar 15.8537 12.6971 19.582
359 1 Ar 15.7822 12.0763 24.2276
360 1 Ar 15.6635 15.3705 27.2397
361 1 Ar 15.8529 15.9326 2.64176
362 1 Ar 16.167 15.7435 5.90273
363 1 Ar 15.4389 15.4304 9.03186
364 1 Ar 15.6965 15.4661 12.2273
365 1 Ar 15.705 15.45 15.4605
366 1 Ar 15.5319 15.9278 18.7931
367 1 Ar 15.1273 15.4104 22.4533
368 1 Ar 15.5798 18.7607 27.6887
369 1 Ar 15.6393 19.2223 2.99202
370 1 Ar 15.2059 18.9716 6.21291
371 1 Ar 15.8156 18.8833 9.33256
372 1 Ar 16.4278 18.6 12.5449
373 1 Ar 15.66 18.9657 15.4801
374 1 Ar 16.4945 18.8776 18.7741
375 1 Ar 15.4283 18.7643 22.0432
376 1 Ar 16.6394 22.8838 26.8718
377 1 Ar 15.8999 22.6895 2.38416
378 1 Ar 15.6516 23.0804 5.63188
379 1 Ar 15.9299 22.4021 8.66805
380 1 Ar 15.742 21.8965 12.0425
381 1 Ar 16.3926 23.4609 15.8089
382 1 Ar 15.8542 22.1356 18.5934
383 1 Ar 15.6168 22.6094 22.3684
384 1 Ar 19.2962 27.2344 26.3822
385 1 Ar 19.5215 26.7076 2.98226
386 1 Ar 18.8657 27.3703 6.29922
387 1 Ar 18.9477 26.3115 9.36956
388 1 Ar 18.6163 27.6041 12.4597
389 1 Ar 19.7113 27.1355 15.8853
390 1 Ar 18.7703 27.0644 19.2395
391 1 Ar 18.0841 26.6428 22.8192
392 1 Ar 19.2505 2.44021 27.8596
393 1 Ar 19.11 2.8953 3.14125
394 1 Ar 19.3139 2.83679 6.64985
395 1 Ar 18.7529 2.51249 9.84557
396 1 Ar 19.2147 3.16862 12.9621
397 1 Ar 19.6595 2.57397 16.1928
398 1 Ar 18.6449 3.0321 19.264
399 1 Ar 19.412 2.33871 23.62
400 1 Ar 18.633 5.98067 26.6265
401 1 Ar 18.9577 5.80341 1.85352
402 1 Ar 18.6486 6.09426 6.07291
403 1 Ar 19.5469 6.03256 9.25301
404 1 Ar 18.9001 6.26611 12.5511
405 1 Ar 18.2733 5.38532 15.9845
406 1 Ar 20.3131 5.82371 18.924
407 1 Ar 18.7809 5.74717 21.8337
408 1 Ar 19.1517 9.0421 27.5397
409 1 Ar 19.0096 9.02847 2.90911
410 1 Ar 19.5907 9.81195 6.41424
411 1 Ar 18.3559 9.21852 9.49541
412 1 Ar 19.2675 9.29621 13.0978
413 1 Ar 19.8579 9.19638 16.2954
414 1 Ar 18.8834 8.77923 19.7858
415 1 Ar 18.736 8.50522 24.0265
416 1 Ar 19.1772 12.5168 27.2235
417 1 Ar 19.295 12.6279 2.69735
418 1 Ar 18.1709 12.601 5.89038
419 1 Ar 19.8777 12.3209 9.16148
420 1 Ar 18.9292 12.4975 12.2702
421 1 Ar 18.7179 12.7865 15.5869
422 1 Ar 19.0811 12.2453 19.064
423 1 Ar 19.0839 11.8815 23.1459
424 1 Ar 18.9927 15.8007 27.387
425 1 Ar 19.0114 15.9289 3.40616
426 1 Ar 19.6969 15.4501 6.51737
427 1 Ar 18.6042 15.4101 9.8968
428 1 Ar 19.6529 15.2868 13.0354
429 1 Ar 18.631 16.1659 15.8599
430 1 Ar 18.7036 15.6173 19.0158
431 1 Ar 18.7565 15.9232 22.472
432 1 Ar 18.9816 19.0527 27.2363
433 1 Ar 19.1122 19.0113 2.88236
434 1 Ar 18.4806 18.6632 6.16722
435 1 Ar 19.1573 18.8372 9.42
436 1 Ar 19.8217 18.5083 12.3738
437 1 Ar 19.343 19.2383 15.4411
438 1 Ar 19.8139 18.6659 19.0749
439 1 Ar 18.726 19.3566 22.1676
440 1 Ar 19.9213 22.6023 27.5561
441 1 Ar 19.0229 22.1905 3.17261
442 1 Ar 20.2324 22.0463 6.23053
443 1 Ar 18.9541 22.8538 9.53267
444 1 Ar 19.5086 21.9796 12.4622
445 1 Ar 19.4806 22.5141 15.699
446 1 Ar 21.1834 22.1397 18.4494
447 1 Ar 19.1508 22.8853 21.8835
448 1 Ar 22.9345 27.0426 27.405
449 1 Ar 23.2715 27.704 2.96903
450 1 Ar 22.1936 27.1883 6.05074
451 1 Ar 22.9639 27.4469 9.64729
452 1 Ar 21.7699 27.152 12.6144
453 1 Ar 23.5029 27.5025 15.4482
454 1 Ar 22.8041 27.1287 18.7544
455 1 Ar 21.9315 27.6014 22.4186
456 1 Ar 22.311 2.58556 25.7606
457 1 Ar 23.0637 3.26655 2.36322
458 1 Ar 22.4449 2.98049 5.79852
459 1 Ar 21.871 3.42557 8.93459
460 1 Ar 23.2869 3.17813 11.855
461 1 Ar 23.0331 2.95961 15.4354
462 1 Ar 22.0443 2.78954 18.8767
463 1 Ar 23.7262 2.93332 22.2328
464 1 Ar 21.8857 6.18879 27.6503
465 1 Ar 22.6201 6.56239 3.08361
466 1 Ar 21.8756 6.06822 6.36359
467 1 Ar 22.8452 6.46856 9.28417
468 1 Ar 22.3474 6.45487 12.8511
469 1 Ar 21.7022 5.98297 16.0523