ITEM: TIMESTEP
-1
ITEM: NUMBER OF ATOMS
500
ITEM: BOX BOUNDS pp pp pp
0 36.6254
0 36.6254
0 36.6254
ITEM: ATOMS id type element xu yu zu
0 1 Ar 0 0 0
1 1 Ar 0 0 4.06949
2 1 Ar 0 0 8.13898
3 1 Ar 0 0 12.2085
4 1 Ar 0 0 16.278
5 1 Ar 0 0 20.3474
6 1 Ar 0 0 24.4169
7 1 Ar 0 0 28.4864
8 1 Ar 0 4.06949 0
9 1 Ar 0 4.06949 4.06949
10 1 Ar 0 4.06949 8.13898
11 1 Ar 0 4.06949 12.2085
12 1 Ar 0 4.06949 16.278
13 1 Ar 0 4.06949 20.3474
14 1 Ar 0 4.06949 24.4169
15 1 Ar 0 4.06949 28.4864
16 1 Ar 0 8.13898 0
17 1 Ar 0 8.13898 4.06949
18 1 Ar 0 8.13898 8.13898
19 1 Ar 0 8.13898 12.2085
20 1 Ar 0 8.13898 16.278
21 1 Ar 0 8.13898 20.3474
22 1 Ar 0 8.13898 24.4169
23 1 Ar 0 8.13898 28.4864
24 1 Ar 0 12.2085 0
25 1 Ar 0 12.2085 4.06949
26 1 Ar 0 12.2085 8.13898
27 1 Ar 0 12.2085 12.2085
28 1 Ar 0 12.2085 16.278
29 1 Ar 0 12.2085 20.3474
30 1 Ar 0 12.2085 24.4169
31 1 Ar 0 12.2085 28.4864
32 1 Ar 0 16.278 0
33 1 Ar 0 16.278 4.06949
34 1 Ar 0 16.278 8.13898
35 1 Ar 0 16.278 12.2085
36 1 Ar 0 16.278 16.278
37 1 Ar 0 16.278 20.3474
38 1 Ar 0 16.278 24.4169
39 1 Ar 0 16.278 28.4864
40 1 Ar 0 20.3474 0
41 1 Ar 0 20.3474 4.06949
42 1 Ar 0 20.3474 8.13898
43 1 Ar 0 20.3474 12.2085
44 1 Ar 0 20.3474 16.278
45 1 Ar 0 20.3474 20.3474
46 1 Ar 0 20.3474 24.4169
47 1 Ar 0 20.3474 28.4864
48 1 Ar 0 24.4169 0
49 1 Ar 0 24.4169 4.06949
50 1 Ar 0 24.4169 8.13898
51 1 Ar 0 24.4169 12.2085
52 1 Ar 0 24.4169 16.278
53 1 Ar 0 24.4169 20.3474
54 1 Ar 0 24.4169 24.4169
55 1 Ar 0 24.4169 28.4864
56 1 Ar 0 28.4864 0
57 1 Ar 0 28.4864 4.06949
58 1 Ar 0 28.4864 8.13898
59 1 Ar 0 28.4864 12.2085
60 1 Ar 0 28.4864 16.278
61 1 Ar 0 28.4864 20.3474
62 1 Ar 0 28.4864 24.4169
63 1 Ar 0 28.4864 28.4864
64 1 Ar 4.06949 0 0
65 1 Ar 4.06949 0 4.06949
66 1 Ar 4.06949 0 8.13898
67 1 Ar 4.06949 0 12.2085
68 1 Ar 4.06949 0 16.278
69 1 Ar 4.06949 0 20.3474
70 1 Ar 4.06949 0 24.4169
71 1 Ar 4.06949 0 28.4864
72 1 Ar 4.06949 4.06949 0
73 1 Ar 4.06949 4.06949 4.06949
74 1 Ar 4.06949 4.06949 8.13898
75 1 Ar 4.06949 4.06949 12.2085
76 1 Ar 4.06949 4.06949 16.278
77 1 Ar 4.06949 4.06949 20.3474
78 1 Ar 4.06949 4.06949 24.4169
79 1 Ar 4.06949 4.06949 28.4864
80 1 Ar 4.06949 8.13898 0
81 1 Ar 4.06949 8.13898 4.06949
82 1 Ar 4.06949 8.13898 8.13898
83 1 Ar 4.06949 8.13898 12.2085
84 1 Ar 4.06949 8.13898 16.278
85 1 Ar 4.06949 8.13898 20.3474
86 1 Ar 4.06949 8.13898 24.4169
87 1 Ar 4.06949 8.13898 28.4864
88 1 Ar 4.06949 12.2085 0
89 1 Ar 4.06949 12.2085 4.06949
90 1 Ar 4.06949 12.2085 8.13898
91 1 Ar 4.06949 12.2085 12.2085
92 1 Ar 4.06949 12.2085 16.278
93 1 Ar 4.06949 12.2085 20.3474
94 1 Ar 4.06949 12.2085 24.4169
95 1 Ar 4.06949 12.2085 28.4864
96 1 Ar 4.06949 16.278 0
97 1 Ar 4.06949 16.278 4.06949
98 1 Ar 4.06949 16.278 8.13898
99 1 Ar 4.06949 16.278 12.2085
100 1 Ar 4.06949 16.278 16.278
101 1 Ar 4.06949 16.278 20.3474
102 1 Ar 4.06949 16.278 24.4169
103 1 Ar 4.06949 16.278 28.4864
104 1 Ar 4.06949 20.3474 0
105 1 Ar 4.06949 20.3474 4.06949
106 1 Ar 4.06949 20.3474 8.13898
107 1 Ar 4.06949 20.3474 12.2085
108 1 Ar 4.06949 20.3474 16.278
109 1 Ar 4.06949 20.3474 20.3474
110 1 Ar 4.06949 20.3474 24.4169
111 1 Ar 4.06949 20.3474 28.4864
112 1 Ar 4.06949 24.4169 0
113 1 Ar 4.06949 24.4169 4.06949
114 1 Ar 4.06949 24.4169 8.13898
115 1 Ar 4.06949 24.4169 12.2085
116 1 Ar 4.06949 24.4169 16.278
117 1 Ar 4.06949 24.4169 20.3474
118 1 Ar 4.06949 24.4169 24.4169
119 1 Ar 4.06949 24.4169 28.4864
120 1 Ar 4.06949 28.4864 0
121 1 Ar 4.06949 28.4864 4.06949
122 1 Ar 4.06949 28.4864 8.13898
123 1 Ar 4.06949 28.4864 12.2085
124 1 Ar 4.06949 28.4864 16.278
125 1 Ar 4.06949 28.4864 20.3474
126 1 Ar 4.06949 28.4864 24.4169
127 1 Ar 4.06949 28.4864 28.4864
128 1 Ar 8.13898 0 0
129 1 Ar 8.13898 0 4.06949
130 1 Ar 8.13898 0 8.13898
131 1 Ar 8.13898 0 12.2085
132 1 Ar 8.13898 0 16.278
133 1 Ar 8.13898 0 20.3474
134 1 Ar 8.13898 0 24.4169
135 1 Ar 8.13898 0 28.4864
136 1 Ar 8.13898 4.06949 0
137 1 Ar 8.13898 4.06949 4.06949
138 1 Ar 8.13898 4.06949 8.13898
139 1 Ar 8.13898 4.06949 12.2085
140 1 Ar 8.13898 4.06949 16.278
141 1 Ar 8.13898 4.06949 20.3474
142 1 Ar 8.13898 4.06949 24.4169
143 1 Ar 8.13898 4.06949 28.4864
144 1 Ar 8.13898 8.13898 0
145 1 Ar 8.13898 8.13898 4.06949
146 1 Ar 8.13898 8.13898 8.13898
147 1 Ar 8.13898 8.13898 12.2085
148 1 Ar 8.13898 8.13898 16.278
149 1 Ar 8.13898 8.13898 20.3474
150 1 Ar 8.13898 8.13898 24.4169
151 1 Ar 8.13898 8.13898 28.4864
152 1 Ar 8.13898 12.2085 0
153 1 Ar 8.13898 12.2085 4.06949
154 1 Ar 8.13898 12.2085 8.13898
155 1 Ar 8.13898 12.2085 12.2085
156 1 Ar 8.13898 12.2085 16.278
157 1 Ar 8.13898 12.2085 20.3474
158 1 Ar 8.13898 12.2085 24.4169
159 1 Ar 8.13898 12.2085 28.4864
160 1 Ar 8.13898 16.278 0
161 1 Ar 8.13898 16.278 4.06949
162 1 Ar 8.13898 16.278 8.13898
163 1 Ar 8.13898 16.278 12.2085
164 1 Ar 8.13898 16.278 16.278
165 1 Ar 8.13898 16.278 20.3474
166 1 Ar 8.13898 16.278 24.4169
167 1 Ar 8.13898 16.278 28.4864
168 1 Ar 8.13898 20.3474 0
169 1 Ar 8.13898 20.3474 4.06949
170 1 Ar 8.13898 20.3474 8.13898
171 1 Ar 8.13898 20.3474 12.2085
172 1 Ar 8.13898 20.3474 16.278
173 1 Ar 8.13898 20.3474 20.3474
174 1 Ar 8.13898 20.3474 24.4169
175 1 Ar 8.13898 20.3474 28.4864
176 1 Ar 8.13898 24.4169 0
177 1 Ar 8.13898 24.4169 4.06949
178 1 Ar 8.13898 24.4169 8.13898
179 1 Ar 8.13898 24.4169 12.2085
180 1 Ar 8.13898 24.4169 16.278
181 1 Ar 8.13898 24.4169 20.3474
182 1 Ar 8.13898 24.4169 24.4169
183 1 Ar 8.13898 24.4169 28.4864
184 1 Ar 8.13898 28.4864 0
185 1 Ar 8.13898 28.4864 4.06949
186 1 Ar 8.13898 28.4864 8.13898
187 1 Ar 8.13898 28.4864 12.2085
188 1 Ar 8.13898 28.4864 16.278
189 1 Ar 8.13898 28.4864 20.3474
190 1 Ar 8.13898 28.4864 24.4169
191 1 Ar 8.13898 28.4864 28.4864
192 1 Ar 12.2085 0 0
193 1 Ar 12.2085 0 4.06949
194 1 Ar 12.2085 0 8.13898
195 1 Ar 12.2085 0 12.2085
196 1 Ar 12.2085 0 16.278
197 1 Ar 12.2085 0 20.3474
198 1 Ar 12.2085 0 24.4169
199 1 Ar 12.2085 0 28.4864
200 1 Ar 12.2085 4.06949 0
201 1 Ar 12.2085 4.06949 4.06949
202 1 Ar 12.2085 4.06949 8.13898
203 1 Ar 12.2085 4.06949 12.2085
204 1 Ar 12.2085 4.06949 16.278
205 1 Ar 12.2085 4.06949 20.3474
206 1 Ar 12.2085 4.06949 24.4169
207 1 Ar 12.2085 4.06949 28.4864
208 1 Ar 12.2085 8.13898 0
209 1 Ar 12.2085 8.13898 4.06949
210 1 Ar 12.2085 8.13898 8.13898
211 1 Ar 12.2085 8.13898 12.2085
212 1 Ar 12.2085 8.13898 16.278
213 1 Ar 12.2085 8.13898 20.3474
214 1 Ar 12.2085 8.13898 24.4169
215 1 Ar 12.2085 8.13898 28.4864
216 1 Ar 12.2085 12.2085 0
217 1 Ar 12.2085 12.2085 4.06949
218 1 Ar 12.2085 12.2085 8.13898
219 1 Ar 12.2085 12.2085 12.2085
220 1 Ar 12.2085 12.2085 16.278
221 1 Ar 12.2085 12.2085 20.3474
222 1 Ar 12.2085 12.2085 24.4169
223 1 Ar 12.2085 12.2085 28.4864
224 1 Ar 12.2085 16.278 0
225 1 Ar 12.2085 16.278 4.06949
226 1 Ar 12.2085 16.278 8.13898
227 1 Ar 12.2085 16.278 12.2085
228 1 Ar 12.2085 16.278 16.278
229 1 Ar 12.2085 16.278 20.3474
230 1 Ar 12.2085 16.278 24.4169
231 1 Ar 12.2085 16.278 28.4864
232 1 Ar 12.2085 20.3474 0
233 1 Ar 12.2085 20.3474 4.06949
234 1 Ar 12.2085 20.3474 8.13898
235 1 Ar 12.2085 20.3474 12.2085
236 1 Ar 12.2085 20.3474 16.278
237 1 Ar 12.2085 20.3474 20.3474
238 1 Ar 12.2085 20.3474 24.4169
239 1 Ar 12.2085 20.3474 28.4864
240 1 Ar 12.2085 24.4169 0
241 1 Ar 12.2085 24.4169 4.06949
242 1 Ar 12.2085 24.4169 8.13898
243 1 Ar 12.2085 24.4169 12.2085
244 1 Ar 12.2085 24.4169 16.278
245 1 Ar 12.2085 24.4169 20.3474
246 1 Ar 12.2085 24.4169 24.4169
247 1 Ar 12.2085 24.4169 28.4864
248 1 Ar 12.2085 28.4864 0
249 1 Ar 12.2085 28.4864 4.06949
250 1 Ar 12.2085 28.4864 8.13898
251 1 Ar 12.2085 28.4864 12.2085
252 1 Ar 12.2085 28.4864 16.278
253 1 Ar 12.2085 28.4864 20.3474
254 1 Ar 12.2085 28.4864 24.4169
255 1 Ar 12.2085 28.4864 28.4864
256 1 Ar 16.278 0 0
257 1 Ar 16.278 0 4.06949
258 1 Ar 16.278 0 8.13898
259 1 Ar 16.278 0 12.2085
260 1 Ar 16.278 0 16.278
261 1 Ar 16.278 0 20.3474
262 1 Ar 16.278 0 24.4169
263 1 Ar 16.278 0 28.4864
264 1 Ar 16.278 4.06949 0
265 1 Ar 16.278 4.06949 4.06949
266 1 Ar 16.278 4.06949 8.13898
267 1 Ar 16.278 4.06949 12.2085
268 1 Ar 16.278 4.06949 16.278
269 1 Ar 16.278 4.06949 20.3474
270 1 Ar 16.278 4.06949 24.4169
271 1 Ar 16.278 4.06949 28.4864
272 1 Ar 16.278 8.13898 0
273 1 Ar 16.278 8.13898 4.06949
274 1 Ar 16.278 8.13898 8.13898
275 1 Ar 16.278 8.13898 12.2085
276 1 Ar 16.278 8.13898 16.278
277 1 Ar 16.278 8.13898 20.3474
278 1 Ar 16.278 8.13898 24.4169
279 1 Ar 16.278 8.13898 28.4864
280 1 Ar 16.278 12.2085 0
281 1 Ar 16.278 12.2085 4.06949
282 1 Ar 16.278 12.2085 8.13898
283 1 Ar 16.278 12.2085 12.2085
284 1 Ar 16.278 12.2085 16.278
285 1 Ar 16.278 12.2085 20.3474
286 1 Ar 16.278 12.2085 24.4169
287 1 Ar 16.278 12.2085 28.4864
288 1 Ar 16.278 16.278 0
289 1 Ar 16.278 16.278 4.06949
290 1 Ar 16.278 16.278 8.13898
291 1 Ar 16.278 16.278 12.2085
292 1 Ar 16.278 16.278 16.278
293 1 Ar 16.278 16.278 20.3474
294 1 Ar 16.278 16.278 24.4169
295 1 Ar 16.278 16.278 28.4864
296 1 Ar 16.278 20.3474 0
297 1 Ar 16.278 20.3474 4.06949
298 1 Ar 16.278 20.3474 8.13898
299 1 Ar 16.278 20.3474 12.2085
300 1 Ar 16.278 20.3474 16.278
301 1 Ar 16.278 20.3474 20.3474
302 1 Ar 16.278 20.3474 24.4169
303 1 Ar 16.278 20.3474 28.4864
304 1 Ar 16.278 24.4169 0
305 1 Ar 16.278 24.4169 4.06949
306 1 Ar 16.278 24.4169 8.13898
307 1 Ar 16.278 24.4169 12.2085
308 1 Ar 16.278 24.4169 16.278
309 1 Ar 16.278 24.4169 20.3474
310 1 Ar 16.278 24.4169 24.4169
311 1 Ar 16.278 24.4169 28.4864
312 1 Ar 16.278 28.4864 0
313 1 Ar 16.278 28.4864 4.06949
314 1 Ar 16.278 28.4864 8.13898
315 1 Ar 16.278 28.4864 12.2085
316 1 Ar 16.278 28.4864 16.278
317 1 Ar 16.278 28.4864 20.3474
318 1 Ar 16.278 28.4864 24.4169
319 1 Ar 16.278 28.4864 28.4864
320 1 Ar 20.3474 0 0
321 1 Ar 20.3474 0 4.06949
322 1 Ar 20.3474 0 8.13898
323 1 Ar 20.3474 0 12.2085
324 1 Ar 20.3474 0 16.278
325 1 Ar 20.3474 0 20.3474
326 1 Ar 20.3474 0 24.4169
327 1 Ar 20.3474 0 28.4864
328 1 Ar 20.3474 4.06949 0
329 1 Ar 20.3474 4.06949 4.06949
330 1 Ar 20.3474 4.06949 8.13898
331 1 Ar 20.3474 4.06949 12.2085
332 1 Ar 20.3474 4.06949 16.278
333 1 Ar 20.3474 4.06949 20.3474
334 1 Ar 20.3474 4.06949 24.4169
335 1 Ar 20.3474 4.06949 28.4864
336 1 Ar 20.3474 8.13898 0
337 1 Ar 20.3474 8.13898 4.06949
338 1 Ar 20.3474 8.13898 8.13898
339 1 Ar 20.3474 8.13898 12.2085
340 1 Ar 20.3474 8.13898 16.278
341 1 Ar 20.3474 8.13898 20.3474
342 1 Ar 20.3474 8.13898 24.4169
343 1 Ar 20.3474 8.13898 28.4864
344 1 Ar 20.3474 12.2085 0
345 1 Ar 20.3474 12.2085 4.06949
346 1 Ar 20.3474 12.2085 8.13898
347 1 Ar 20.3474 12.2085 12.2085
348 1 Ar 20.3474 12.2085 16.278
349 1 Ar 20.3474 12.2085 20.3474
350 1 Ar 20.3474 12.2085 24.4169
351 1 Ar 20.3474 12.2085 28.4864
352 1 Ar 20.3474 16.278 0
353 1 Ar 20.3474 16.278 4.06949
354 1 Ar 20.3474 16.278 8.13898
355 1 Ar 20.3474 16.278 12.2085
356 1 Ar 20.3474 16.278 16.278
357 1 Ar 20.3474 16.278 20.3474
358 1 Ar 20.3474 16.278 24.4169
359 1 Ar 20.3474 16.278 28.4864
360 1 Ar 20.3474 20.3474 0
361 1 Ar 20.3474 20.3474 4.06949
362 1 Ar 20.3474 20.3474 8.13898
363 1 Ar 20.3474 20.3474 12.2085
364 1 Ar 20.3474 20.3474 16.278
365 1 Ar 20.3474 20.3474 20.3474
366 1 Ar 20.3474 20.3474 24.4169
367 1 Ar 20.3474 20.3474 28.4864
368 1 Ar 20.3474 24.4169 0
369 1 Ar 20.3474 24.4169 4.06949
370 1 Ar 20.3474 24.4169 8.13898
371 1 Ar 20.3474 24.4169 12.2085
372 1 Ar 20.3474 24.4169 16.278
373 1 Ar 20.3474 24.4169 20.3474
374 1 Ar 20.3474 24.4169 24.4169
375 1 Ar 20.3474 24.4169 28.4864
376 1 Ar 20.3474 28.4864 0
377 1 Ar 20.3474 28.4864 4.06949
378 1 Ar 20.3474 28.4864 8.13898
379 1 Ar 20.3474 28.4864 12.2085
380 1 Ar 20.3474 28.4864 16.278
381 1 Ar 20.3474 28.4864 20.3474
382 1 Ar 20.3474 28.4864 24.4169
383 1 Ar 20.3474 28.4864 28.4864
384 1 Ar 24.4169 0 0
385 1 Ar 24.4169 0 4.06949
386 1 Ar 24.4169 0 8.13898
387 1 Ar 24.4169 0 12.2085
388 1 Ar 24.4169 0 16.278
389 1 Ar 24.4169 0 20.3474
390 1 Ar 24.4169 0 24.4169
391 1 Ar 24.4169 0 28.4864
392 1 Ar 24.4169 4.06949 0
393 1 Ar 24.4169 4.06949 4.06949
394 1 Ar 24.4169 4.06949 8.13898
395 1 Ar 24.4169 4.06949 12.2085
396 1 Ar 24.4169 4.06949 16.278
397 1 Ar 24.4169 4.06949 20.3474
398 1 Ar 24.4169 4.06949 24.4169
399 1 Ar 24.4169 4.06949 28.4864
400 1 Ar 24.4169 8.13898 0
401 1 Ar 24.4169 8.13898 4.06949
402 1 Ar 24.4169 8.13898 8.13898
403 1 Ar 24.4169 8.13898 12.2085
404 1 Ar 24.4169 8.13898 16.278
405 1 Ar 24.4169 8.13898 20.3474
406 1 Ar 24.4169 8.13898 24.4169
407 1 Ar 24.4169 8.13898 28.4864
408 1 Ar 24.4169 12.2085 0
409 1 Ar 24.4169 12.2085 4.06949
410 1 Ar 24.4169 12.2085 8.13898
411 1 Ar 24.4169 12.2085 12.2085
412 1 Ar 24.4169 12.2085 16.278
413 1 Ar 24.4169 12.2085 20.3474
414 1 Ar 24.4169 12.2085 24.4169
415 1 Ar 24.4169 12.2085 28.4864
416 1 Ar 24.4169 16.278 0
417 1 Ar 24.4169 16.278 4.06949
418 1 Ar 24.4169 16.278 8.13898
419 1 Ar 24.4169 16.278 12.2085
420 1 Ar 24.4169 16.278 16.278
421 1 Ar 24.4169 16.278 20.3474
422 1 Ar 24.4169 16.278 24.4169
423 1 Ar 24.4169 16.278 28.4864
424 1 Ar 24.4169 20.3474 0
425 1 Ar 24.4169 20.3474 4.06949
426 1 Ar 24.4169 20.3474 8.13898
427 1 Ar 24.4169 20.3474 12.2085
428 1 Ar 24.4169 20.3474 16.278
429 1 Ar 24.4169 20.3474 20.3474
430 1 Ar 24.4169 20.3474 24.4169
431 1 Ar 24.4169 20.3474 28.4864
432 1 Ar 24.4169 24.4169 0
433 1 Ar 24.4169 24.4169 4.06949
434 1 Ar 24.4169 24.4169 8.13898
435 1 Ar 24.4169 24.4169 12.2085
436 1 Ar 24.4169 24.4169 16.278
437 1 Ar 24.4169 24.4169 20.3474
438 1 Ar 24.4169 24.4169 24.4169
439 1 Ar 24.4169 24.4169 28.4864
440 1 Ar 24.4169 28.4864 0
441 1 Ar 24.4169 28.4864 4.06949
442 1 Ar 24.4169 28.4864 8.13898
443 1 Ar 24.4169 28.4864 12.2085
444 1 Ar 24.4169 28.4864 16.278
445 1 Ar 24.4169 28.4864 20.3474
446 1 Ar 24.4169 28.4864 24.4169
447 1 Ar 24.4169 28.4864 28.4864
448 1 Ar 28.4864 0 0
449 1 Ar 28.4864 0 4.06949
450 1 Ar 28.4864 0 8.13898
451 1 Ar 28.4864 0 12.2085
452 1 Ar 28.4864 0 16.278
453 1 Ar 28.4864 0 20.3474
454 1 Ar 28.4864 0 24.4169
455 1 Ar 28.4864 0 28.4864
456 1 Ar 28.4864 4.06949 0
457 1 Ar 28.4864 4.06949 4.06949
458 1 Ar 28.4864 4.06949 8.13898
459 1 Ar 28.4864 4.06949 12.2085
460 1 Ar 28.4864 4.06949 16.278
461 1 Ar 28.4864 4.06949 20.3474
462 1 Ar 28.4864 4.06949 24.4169
463 1 Ar 28.4864 4.06949 28.4864
464 1 Ar 28.4864 8.13898 0
465 1 Ar 28.4864 8.13898 4.06949
466 1 Ar 28.4864 8.13898 8.13898
467 1 Ar 28.4864 8.13898 12.2085
468 1 Ar 28.4864 8.13898 16.278
469 1 Ar 28.4864 8.13898 20.3474
470 1 Ar 28.4864 8.13898 24.4169
471 1 Ar 28.4864 8.13898 28.4864
472 1 Ar 28.4864 12.2085 0
473 1 Ar 28.4864 12.2085 4.06949
474 1 Ar 28.4864 12.2085 8.13898
475 1 Ar 28.4864 12.2085 12.2085
476 1 Ar 28.4864 12.2085 16.278
477 1 Ar 28.4864 12.2085 20.3474
478 1 Ar 28.4864 12.2085 24.4169
479 1 Ar 28.4864 12.2085 28.4864
480 1 Ar 28.4864 16.278 0
481 1 Ar 28.4864 16.278 4.06949
482 1 Ar 28.4864 16.278 8.13898
483 1 Ar 28.4864 16.278 12.2085
484 1 Ar 28.4864 16.278 16.278
485 1 Ar 28.4864 16.278 20.3474
486 1 Ar 28.4864 16.278 24.4169
487 1 Ar 28.4864 16.278 28.4864
488 1 Ar 28.4864 20.3474 0
489 1 Ar 28.4864 20.3474 4.06949
490 1 Ar 28.4864 20.3474 8.13898
491 1 Ar 28.4864 20.3474 12.2085
492 1 Ar 28.4864 20.3474 16.278
493 1 Ar 28.4864 20.3474 20.3474
494 1 Ar 28.4864 20.3474 24.4169
495 1 Ar 28.4864 20.3474 28.4864
496 1 Ar 28.4864 24.4169 0
497 1 Ar 28.4864 24.4169 4.06949
498 1 Ar 28.4864 24.4169 8.13898
499 1 Ar 28.4864 24.4169 12.2085
ITEM: TIMESTEP
19999
ITEM: NUMBER OF ATOMS
500
ITEM: BOX BOUNDS pp pp pp
0 36.6254
0 36.6254
0 36.6254
ITEM: ATOMS id type element xu yu zu
0 1 Ar 31.9831 36.6142 4.58322
1 1 Ar 33.5524 35.2564 8.72411
2 1 Ar 2.06389 0.245549 7.18465
3 1 Ar 34.1476 1.25981 12.1062
4 1 Ar 0.0437812 33.2971 16.0175
5 1 Ar 0.542191 33.6973 20.9059
6 1 Ar 1.24245 0.323215 25.7669
7 1 Ar 1.9572 0.138139 31.9786
8 1 Ar 4.38072 0.463044 2.31265
9 1 Ar 36.6014 3.2402 5.0972
10 1 Ar 33.4003 5.96244 10.2357
11 1 Ar 0.839682 3.69021 9.00087
12 1 Ar 0.0703624 2.46066 14.8883
13 1 Ar 34.4201 5.09159 18.6026
14 1 Ar 0.164088 5.90026 23.95
15 1 Ar 0.197868 3.35109 27.3767
16 1 Ar 33.7019 9.86582 3.38545
17 1 Ar 34.322 6.84068 6.29453
18 1 Ar 31.5483 9.8179 8.14633
19 1 Ar 31.9856 6.55691 13.4397
20 1 Ar 0.424617 6.50845 16.4582
21 1 Ar 36.5937 8.67405 19.1348
22 1 Ar 32.8318 9.62144 26.0383
23 1 Ar 0.221544 7.47802 32.1238
24 1 Ar 0.340859 12.4889 35.5814
25 1 Ar 36.4154 15.0894 1.89269
26 1 Ar 35.7628 13.505 11.2253
27 1 Ar 36.5649 10.7435 9.19249
28 1 Ar 0.114447 13.1886 15.1884
29 1 Ar 32.1105 9.34805 15.8595
30 1 Ar 35.3884 12.7371 24.1965
31 1 Ar 34.939 9.99083 29.9546
32 1 Ar 2.4611 17.1006 0.593588
33 1 Ar 34.9312 16.2924 5.64447
34 1 Ar 2.43397 14.6001 7.67406
35 1 Ar 0.566345 17.7846 11.4266
36 1 Ar 36.0302 16.7191 16.3245
37 1 Ar 1.37786 14.4624 20.8399
38 1 Ar 33.8246 16.6888 24.7589
39 1 Ar 30.9269 16.6892 26.4061
40 1 Ar 4.97114 17.1254 34.6272
41 1 Ar 36.4406 19.2412 4.20973
42 1 Ar 0.916713 19.7014 8.04568
43 1 Ar 1.05559 21.3105 11.939
44 1 Ar 0.531003 20.8587 15.929
45 1 Ar 1.16758 19.3283 19.3283
46 1 Ar 36.4548 18.9337 22.7457
47 1 Ar 36.2337 20.2635 29.0056
48 1 Ar 35.4087 22.277 1.28352
49 1 Ar 36.4132 25.7361 3.34449
50 1 Ar 1.32954 23.9192 7.33542
51 1 Ar 1.79319 25.6795 12.9545
52 1 Ar 33.9282 19.3951 20.198
53 1 Ar 0.455007 25.1528 19.973
54 1 Ar 0.397319 23.6045 23.5485
55 1 Ar 36.267 26.1208 25.6912
56 1 Ar 32.1078 25.6404 36.2565
57 1 Ar 3.2325 30.6057 3.78203
58 1 Ar 28.4894 31.9207 1.61306
59 1 Ar 0.74399 27.4252 9.86554
60 1 Ar 0.873091 30.6565 13.7311
61 1 Ar 0.334347 28.9566 21.3363
62 1 Ar 1.70952 29.7532 26.038
63 1 Ar 1.28331 24.4502 28.486
64 1 Ar 4.96009 0.766962 35.4628
65 1 Ar 7.46492 34.8939 2.4755
66 1 Ar 3.81494 33.705 5.51116
67 1 Ar 5.27752 34.7929 10.2445
68 1 Ar 5.71182 0.707587 15.3486
69 1 Ar 3.06434 0.00289249 21.6159
70 1 Ar 6.15271 34.3536 22.7115
71 1 Ar 3.50349 0.938658 28.0107
72 1 Ar 6.20029 3.34207 33.185
73 1 Ar 2.67227 5.70572 2.52864
74 1 Ar 4.60597 3.5948 8.04883
75 1 Ar 4.49012 3.28918 12.1795
76 1 Ar 2.30596 3.08784 17.9715
77 1 Ar 2.45059 5.5821 21.0366
78 1 Ar 3.08998 4.11024 25.7503
79 1 Ar 2.43906 4.60783 30.8181
80 1 Ar 4.1348 4.18265 36.3198
81 1 Ar 3.74071 8.7671 1.5008
82 1 Ar 2.12157 6.8472 7.80338
83 1 Ar 3.16281 6.60366 13.4735
84 1 Ar 4.36618 10.1305 15.542
85 1 Ar 4.35461 8.79922 19.5859
86 1 Ar 4.14339 7.83854 25.5524
87 1 Ar 6.29138 4.95603 29.096
88 1 Ar 3.83617 12.613 1.28913
89 1 Ar 6.12049 13.7704 5.66947
90 1 Ar 4.74074 13.4858 10.4315
91 1 Ar 2.76088 14.0383 13.2631
92 1 Ar 7.00316 14.7984 18.4218
93 1 Ar 4.80272 12.6136 20.7457
94 1 Ar 5.19883 10.7703 23.7672
95 1 Ar 1.88972 8.01611 28.5315
96 1 Ar 5.62623 15.8364 1.35468
97 1 Ar 3.02779 16.1155 4.06465
98 1 Ar 6.29058 16.0043 8.52819
99 1 Ar 4.78267 18.2272 10.6675
100 1 Ar 5.03495 16.6719 14.2797
101 1 Ar 6.0655 15.453 22.3721
102 1 Ar 3.54244 14.9067 25.024
103 1 Ar 0.968585 14.0532 30.1727
104 1 Ar 4.29448 20.2142 36.419
105 1 Ar 3.81352 19.7274 3.14463
106 1 Ar 3.85956 20.9275 6.80211
107 1 Ar 5.3956 20.9523 13.6689
108 1 Ar 3.69444 18.9661 17.1749
109 1 Ar 5.56364 21.3097 18.3396
110 1 Ar 3.71789 18.1635 23.1134
111 1 Ar 3.24082 20.7314 26.5675
112 1 Ar 2.82705 26.861 0.376723
113 1 Ar 2.85829 23.2749 2.98152
114 1 Ar 5.04879 23.8466 7.97984
115 1 Ar 4.92238 24.0863 12.3237
116 1 Ar 4.23871 24.2414 16.2343
117 1 Ar 4.00644 23.628 20.7564
118 1 Ar 2.99907 25.3246 25.4668
119 1 Ar 4.24597 22.7069 32.0552
120 1 Ar 5.97603 28.2722 1.55479
121 1 Ar 0.909149 31.2849 0.337754
122 1 Ar 2.67634 26.8632 5.73665
123 1 Ar 3.53413 28.809 11.7387
124 1 Ar 6.27439 28.0094 18.1583
125 1 Ar 5.09062 29.583 21.8846
126 1 Ar 5.20481 27.6417 25.1756
127 1 Ar 2.39623 28.4978 29.2828
128 1 Ar 10.7602 0.377794 34.7808
129 1 Ar 5.778 3.13514 4.82871
130 1 Ar 9.70606 3.06537 6.81389
131 1 Ar 8.83211 0.945635 12.7397
132 1 Ar 10.6364 2.05828 15.7979
133 1 Ar 8.16598 0.979577 20.7637
134 1 Ar 7.97473 0.554135 24.8748
135 1 Ar 4.32773 34.0084 27.2292
136 1 Ar 6.42662 5.85818 1.64604
137 1 Ar 8.02518 2.73098 0.54964
138 1 Ar 7.7298 4.20905 9.2984
139 1 Ar 7.62952 4.52111 13.571
140 1 Ar 8.66727 5.19629 17.5704
141 1 Ar 6.0503 5.27565 20.8161
142 1 Ar 8.61706 2.00389 27.9363
143 1 Ar 10.3574 4.14682 31.6278
144 1 Ar 9.51392 6.255 0.178249
145 1 Ar 9.1753 8.17189 3.12842
146 1 Ar 7.21504 9.29672 8.24093
147 1 Ar 8.68866 8.22814 12.067
148 1 Ar 7.7503 8.47168 16.5412
149 1 Ar 7.74536 8.87169 20.6692
150 1 Ar 8.08527 7.63682 24.906
151 1 Ar 8.64145 9.4044 28.6719
152 1 Ar 7.30566 10.2355 0.599755
153 1 Ar 8.91202 12.978 3.57802
154 1 Ar 9.4119 14.3666 7.82626
155 1 Ar 7.70636 11.6202 13.8188
156 1 Ar 9.0306 11.9436 17.7772
157 1 Ar 8.47015 12.6606 21.2777
158 1 Ar 8.413 12.2912 24.4836
159 1 Ar 3.64645 12.6124 28.0432
160 1 Ar 8.88497 16.0868 36.0263
161 1 Ar 6.85465 18.308 5.34987
162 1 Ar 10.0297 17.8722 9.72437
163 1 Ar 7.70835 14.8414 12.2346
164 1 Ar 7.60139 18.6463 16.7295
165 1 Ar 10.3204 17.0717 21.9367
166 1 Ar 7.81787 16.1962 25.3399
167 1 Ar 9.45829 16.0744 29.2777
168 1 Ar 7.64106 20.672 1.22986
169 1 Ar 6.63118 21.6482 4.33451
170 1 Ar 7.4138 20.9273 8.17768
171 1 Ar 8.01147 18.8138 12.8838
172 1 Ar 8.53796 21.863 15.4034
173 1 Ar 9.54561 20.4972 20.4774
174 1 Ar 8.2692 19.8704 23.564
175 1 Ar 7.11786 21.3566 27.6033
176 1 Ar 7.56749 25.3072 30.3334
177 1 Ar 5.78382 26.0829 4.37481
178 1 Ar 8.4305 27.4919 9.22188
179 1 Ar 9.27877 24.8111 13.3153
180 1 Ar 8.04146 24.9441 16.6453
181 1 Ar 8.04563 25.0643 21.404
182 1 Ar 6.5913 22.9534 24.3411
183 1 Ar 5.81891 24.6723 27.2657
184 1 Ar 15.2096 25.556 33.0493
185 1 Ar 9.04343 28.3664 5.73423
186 1 Ar 5.73051 30.1678 7.90069
187 1 Ar 10.6323 30.9802 13.4347
188 1 Ar 6.8469 27.8576 13.1194
189 1 Ar 2.88557 31.3895 19.3919
190 1 Ar 6.8449 28.4553 29.3771
191 1 Ar 1.46497 25.0256 31.9004
192 1 Ar 13.1565 36.337 31.6404
193 1 Ar 11.0498 0.247027 3.17745
194 1 Ar 12.374 0.0375722 6.7184
195 1 Ar 12.6381 34.4104 13.2217
196 1 Ar 15.0135 0.622214 13.5345
197 1 Ar 13.5917 1.35464 21.2629
198 1 Ar 13.2022 35.4885 24.6621
199 1 Ar 13.8822 3.83238 30.4589
200 1 Ar 11.9619 3.02457 0.317694
201 1 Ar 12.0988 5.08393 5.07241
202 1 Ar 14.5095 0.912882 10.0359
203 1 Ar 11.988 3.11662 11.9451
204 1 Ar 11.7601 5.36243 15.3539
205 1 Ar 11.0707 4.72923 19.6432
206 1 Ar 13.7133 4.76807 22.803
207 1 Ar 12.998 2.67514 26.9207
208 1 Ar 12.0878 8.74076 35.2677
209 1 Ar 12.7277 9.51356 5.30529
210 1 Ar 14.5315 7.78817 9.52769
211 1 Ar 12.5236 8.38772 12.064
212 1 Ar 10.8314 9.6772 14.8514
213 1 Ar 11.5722 9.21203 18.8446
214 1 Ar 11.808 7.57795 22.3759
215 1 Ar 14.2229 9.9946 32.5911
216 1 Ar 11.3372 11.3902 1.20613
217 1 Ar 12.9163 13.55 3.99269
218 1 Ar 10.2628 10.5375 9.36413
219 1 Ar 11.2073 12.7168 12.215
220 1 Ar 12.0244 12.987 15.9073
221 1 Ar 12.5916 12.9044 22.1852
222 1 Ar 11.3987 11.0099 26.0357
223 1 Ar 10.9398 13.1416 28.9027
224 1 Ar 13.2081 15.3546 0.684313
225 1 Ar 11.4697 16.6734 4.63486
226 1 Ar 12.9698 15.415 9.08406
227 1 Ar 12.568 17.8971 12.2291
228 1 Ar 13.1748 16.6684 15.7754
229 1 Ar 14.2362 16.0183 19.7665
230 1 Ar 13.4806 17.7909 23.6622
231 1 Ar 12.8604 15.1836 27.0381
232 1 Ar 10.5213 18.6703 1.25331
233 1 Ar 10.2427 20.2715 5.189
234 1 Ar 12.4433 18.8064 7.59629
235 1 Ar 12.2957 21.404 12.5527
236 1 Ar 11.5418 20.2136 16.9534
237 1 Ar 13.3728 20.1463 20.3916
238 1 Ar 12.1688 20.4863 25.7022
239 1 Ar 9.87127 21.7535 35.707
240 1 Ar 12.3329 24.5484 31.1012
241 1 Ar 11.9019 24.3328 4.13951
242 1 Ar 11.368 24.0264 7.80598
243 1 Ar 11.559 27.4189 13.3417
244 1 Ar 12.8338 24.1722 14.8036
245 1 Ar 11.3055 24.5562 18.9951
246 1 Ar 10.8651 25.9503 23.5346
247 1 Ar 10.6443 22.7948 28.0911
248 1 Ar 15.3218 29.8502 35.581
249 1 Ar 10.4186 29.0635 1.40387
250 1 Ar 11.8456 27.6105 7.80574
251 1 Ar 13.4597 29.9566 11.1825
252 1 Ar 13.302 29.3329 15.8105
253 1 Ar 5.79638 31.3566 13.8258
254 1 Ar 13.7238 27.6001 20.4371
255 1 Ar 12.2637 28.2051 26.905
256 1 Ar 16.5368 0.188889 35.2915
257 1 Ar 15.2117 36.5253 5.1184
258 1 Ar 16.2892 34.9896 8.81201
259 1 Ar 14.9751 32.7309 17.3185
260 1 Ar 15.1681 0.196951 18.5956
261 1 Ar 15.6993 33.946 21.8243
262 1 Ar 17.6856 1.55204 21.7649
263 1 Ar 16.4503 5.39073 27.8897
264 1 Ar 15.563 3.49657 34.9931
265 1 Ar 14.7874 1.28817 1.64952
266 1 Ar 13.5684 4.73961 8.59364
267 1 Ar 16.8601 6.21668 12.3052
268 1 Ar 16.9727 3.47679 15.9128
269 1 Ar 14.8477 6.27657 18.6662
270 1 Ar 17.622 5.91225 23.5936
271 1 Ar 24.1606 5.87098 27.776
272 1 Ar 16.807 8.19786 0.0599613
273 1 Ar 17.5844 9.1789 3.86687
274 1 Ar 23.4666 13.4288 12.5193
275 1 Ar 16.0392 9.50188 11.8336
276 1 Ar 15.2613 7.53016 15.0036
277 1 Ar 17.844 8.57035 21.2039
278 1 Ar 14.9031 9.14108 24.1307
279 1 Ar 16.3992 8.98918 28.5639
280 1 Ar 14.3706 12.1944 35.86
281 1 Ar 16.3718 13.0636 3.8153
282 1 Ar 17.537 10.3025 7.42988
283 1 Ar 14.6901 12.5817 13.608
284 1 Ar 15.0025 12.3443 18.1337
285 1 Ar 14.4797 9.5723 20.7763
286 1 Ar 16.8315 11.6121 25.6248
287 1 Ar 14.9696 12.2861 28.5324
288 1 Ar 15.6861 14.7894 32.9094
289 1 Ar 14.5799 17.2944 3.65451
290 1 Ar 17.9114 15.8473 8.42168
291 1 Ar 15.4183 16.0332 12.8728
292 1 Ar 16.8806 15.9348 17.1712
293 1 Ar 17.4057 13.6589 20.9253
294 1 Ar 16.2993 15.2155 26.4269
295 1 Ar 15.3239 21.5284 29.1317
296 1 Ar 17.1512 23.4337 3.25753
297 1 Ar 17.9916 19.5438 2.41228
298 1 Ar 17.4569 19.5804 6.48649
299 1 Ar 17.2298 18.801 10.7143
300 1 Ar 15.4553 19.5124 14.4422
301 1 Ar 17.0628 19.9586 20.0533
302 1 Ar 15.8753 20.9094 23.8576
303 1 Ar 20.194 22.391 30.7119
304 1 Ar 14.6914 23.8782 0.20444
305 1 Ar 14.7556 21.5842 5.38843
306 1 Ar 15.0021 24.8047 8.63336
307 1 Ar 15.8178 25.0083 12.9013
308 1 Ar 17.1005 22.7826 17.4932
309 1 Ar 16.8813 24.2607 22.5133
310 1 Ar 14.2552 23.9821 26.5878
311 1 Ar 18.2524 24.8204 27.8878
312 1 Ar 17.1714 26.4671 35.7162
313 1 Ar 15.7634 29.4305 3.06451
314 1 Ar 15.7913 29.3185 7.96833
315 1 Ar 16.2233 28.4963 13.0505
316 1 Ar 19.4999 27.8108 17.8123
317 1 Ar 17.831 29.0442 22.7285
318 1 Ar 15.0736 28.2698 23.9891
319 1 Ar 14.4037 27.3463 29.1775
320 1 Ar 20.551 34.9684 36.2292
321 1 Ar 19.5866 35.9105 3.21461
322 1 Ar 20.1161 35.6461 9.49815
323 1 Ar 17.487 32.9226 12.403
324 1 Ar 18.4691 34.221 19.5584
325 1 Ar 24.832 32.439 17.9755
326 1 Ar 20.1004 36.2132 23.891
327 1 Ar 24.0278 33.3457 29.4917
328 1 Ar 19.7912 1.73531 0.0916698
329 1 Ar 23.7926 6.01235 4.95217
330 1 Ar 18.216 3.72776 5.9806
331 1 Ar 21.2105 36.4692 13.1917
332 1 Ar 20.1112 5.01217 16.8814
333 1 Ar 19.5239 5.57326 20.2932
334 1 Ar 20.219 3.29753 25.1682
335 1 Ar 20.2656 7.94805 27.3504
336 1 Ar 20.254 6.68012 1.66924
337 1 Ar 21.9667 9.3272 4.47546
338 1 Ar 20.1694 7.18566 7.34457
339 1 Ar 20.8333 7.37922 10.6475
340 1 Ar 18.6034 8.5424 17.085
341 1 Ar 21.7015 8.33517 18.7228
342 1 Ar 20.0508 8.15348 23.6952
343 1 Ar 22.1413 10.1116 30.6498
344 1 Ar 20.8633 17.9395 33.5733
345 1 Ar 21.2208 12.9305 3.45503
346 1 Ar 20.2841 13.1387 7.63542
347 1 Ar 21.5022 8.91916 14.0989
348 1 Ar 21.7842 13.483 16.8164
349 1 Ar 21.1791 12.6898 22.116
350 1 Ar 19.9283 12.6601 25.9401
351 1 Ar 18.2827 12.2496 29.4676
352 1 Ar 19.8122 15.4824 1.78065
353 1 Ar 20.7627 16.4178 5.33342
354 1 Ar 21.3681 15.6987 10.4938
355 1 Ar 19.0324 17.2157 13.2621
356 1 Ar 21.8342 16.8938 15.5716
357 1 Ar 19.8662 16.0516 19.4765
358 1 Ar 20.5868 16.4685 23.216
359 1 Ar 19.6776 15.7878 28.2718
360 1 Ar 21.1305 19.3455 0.272435
361 1 Ar 20.7926 20.7753 3.65879
362 1 Ar 20.4347 19.8413 8.02673
363 1 Ar 20.0749 20.394 14.4568
364 1 Ar 20.6205 20.3135 18.1967
365 1 Ar 21.6511 20.1371 21.3327
366 1 Ar 19.7925 19.9506 24.8644
367 1 Ar 17.8361 19.2951 27.502
368 1 Ar 21.5197 24.3398 34.7253
369 1 Ar 18.7393 25.9255 4.64213
370 1 Ar 20.8269 24.5217 7.51399
371 1 Ar 14.9091 21.5163 10.1934
372 1 Ar 20.4056 24.7723 15.7559
373 1 Ar 20.1169 23.6087 19.7437
374 1 Ar 20.6705 23.9045 23.5157
375 1 Ar 21.5813 25.5419 27.0635
376 1 Ar 20.7359 28.5741 2.10859
377 1 Ar 18.2781 29.9747 5.11164
378 1 Ar 18.9835 27.5271 7.65509
379 1 Ar 20.0088 26.6542 11.5803
380 1 Ar 21.5523 29.5834 13.7976
381 1 Ar 25.4204 28.8731 19.5315
382 1 Ar 17.7996 34.6332 26.1164
383 1 Ar 20.1197 29.1138 29.9416
384 1 Ar 23.3963 31.4756 0.115196
385 1 Ar 18.6044 32.9404 7.29561
386 1 Ar 23.4436 31.8996 6.282
387 1 Ar 21.8617 31.988 11.3845
388 1 Ar 26.1714 0.235122 14.527
389 1 Ar 27.3036 2.9393 17.3405
390 1 Ar 23.7338 35.2339 21.8968
391 1 Ar 26.3641 0.393946 27.5316
392 1 Ar 28.722 2.08624 31.437
393 1 Ar 25.0758 34.8887 36.4891
394 1 Ar 22.4463 3.21301 10.1203
395 1 Ar 26.8764 3.43935 12.8925
396 1 Ar 23.5094 4.25374 15.1467
397 1 Ar 24.3758 4.69155 20.1701
398 1 Ar 23.7406 2.64427 22.9677
399 1 Ar 24.77 6.86328 31.3304
400 1 Ar 24.9837 7.21825 1.55257
401 1 Ar 25.2837 9.36678 4.80054
402 1 Ar 23.5444 8.37469 7.62674
403 1 Ar 25.1171 6.85881 12.2162
404 1 Ar 24.5428 8.00313 16.9265
405 1 Ar 25.3648 9.10017 20.4908
406 1 Ar 23.5794 6.41177 23.5022
407 1 Ar 24.4959 9.36822 26.1196
408 1 Ar 22.6523 10.7771 36.5567
409 1 Ar 25.5826 12.6014 4.31093
410 1 Ar 25.6326 13.5013 7.99172
411 1 Ar 25.8863 10.5654 11.4733
412 1 Ar 25.2896 12.0146 16.8598
413 1 Ar 24.9088 12.4145 20.4249
414 1 Ar 25.6464 12.2352 24.3651
415 1 Ar 24.6327 13.3905 27.6732
416 1 Ar 23.679 13.8003 34.0965
417 1 Ar 23.7509 15.9913 2.68811
418 1 Ar 25.1456 16.6399 6.92937
419 1 Ar 25.288 18.2633 11.1606
420 1 Ar 25.6721 17.2943 17.1186
421 1 Ar 24.0512 17.0031 21.5081
422 1 Ar 24.3216 15.9892 24.6915
423 1 Ar 26.7801 13.4886 31.0538
424 1 Ar 25.094 19.8935 36.3297
425 1 Ar 25.551 20.5252 4.158
426 1 Ar 24.075 19.7838 7.89244
427 1 Ar 22.6742 21.5633 10.5776
428 1 Ar 23.5147 21.1887 16.0412
429 1 Ar 25.1102 20.8389 20.6668
430 1 Ar 24.5432 20.0219 24.0883
431 1 Ar 22.4083 20.1524 28.0073
432 1 Ar 25.5937 25.3909 34.6298
433 1 Ar 24.1712 24.2253 2.73506
434 1 Ar 24.0978 23.6566 6.8611
435 1 Ar 22.9079 24.8866 12.3988
436 1 Ar 26.1975 23.4597 18.138
437 1 Ar 23.8182 24.5268 21.1355
438 1 Ar 26.3395 22.78 24.7548
439 1 Ar 22.6654 25.0748 30.0066
440 1 Ar 27.2785 28.5134 36.3916
441 1 Ar 26.2798 28.9743 5.02344
442 1 Ar 24.0085 26.8761 7.89034
443 1 Ar 29.712 31.3745 11.6346
444 1 Ar 24.2749 25.5932 15.6472
445 1 Ar 27.1041 27.0755 17.4585
446 1 Ar 22.4378 26.9902 23.4216
447 1 Ar 25.0831 0.339784 32.3627
448 1 Ar 30.6213 32.9808 33.5891
449 1 Ar 33.5935 2.64644 7.87985