ITEM: TIMESTEP
-1
ITEM: NUMBER OF ATOMS
500
ITEM: BOX BOUNDS pp pp pp
0 31.9952
0 31.9952
0 31.9952
ITEM: ATOMS id type element xu yu zu
0 1 Ar 0 0 0
1 1 Ar 0 0 3.55502
2 1 Ar 0 0 7.11005
3 1 Ar 0 0 10.6651
4 1 Ar 0 0 14.2201
5 1 Ar 0 0 17.7751
6 1 Ar 0 0 21.3301
7 1 Ar 0 0 24.8852
8 1 Ar 0 3.55502 0
9 1 Ar 0 3.55502 3.55502
10 1 Ar 0 3.55502 7.11005
11 1 Ar 0 3.55502 10.6651
12 1 Ar 0 3.55502 14.2201
13 1 Ar 0 3.55502 17.7751
14 1 Ar 0 3.55502 21.3301
15 1 Ar 0 3.55502 24.8852
16 1 Ar 0 7.11005 0
17 1 Ar 0 7.11005 3.55502
18 1 Ar 0 7.11005 7.11005
19 1 Ar 0 7.11005 10.6651
20 1 Ar 0 7.11005 14.2201
21 1 Ar 0 7.11005 17.7751
22 1 Ar 0 7.11005 21.3301
23 1 Ar 0 7.11005 24.8852
24 1 Ar 0 10.6651 0
25 1 Ar 0 10.6651 3.55502
26 1 Ar 0 10.6651 7.11005
27 1 Ar 0 10.6651 10.6651
28 1 Ar 0 10.6651 14.2201
29 1 Ar 0 10.6651 17.7751
30 1 Ar 0 10.6651 21.3301
31 1 Ar 0 10.6651 24.8852
32 1 Ar 0 14.2201 0
33 1 Ar 0 14.2201 3.55502
34 1 Ar 0 14.2201 7.11005
35 1 Ar 0 14.2201 10.6651
36 1 Ar 0 14.2201 14.2201
37 1 Ar 0 14.2201 17.7751
38 1 Ar 0 14.2201 21.3301
39 1 Ar 0 14.2201 24.8852
40 1 Ar 0 17.7751 0
41 1 Ar 0 17.7751 3.55502
42 1 Ar 0 17.7751 7.11005
43 1 Ar 0 17.7751 10.6651
44 1 Ar 0 17.7751 14.2201
45 1 Ar 0 17.7751 17.7751
46 1 Ar 0 17.7751 21.3301
47 1 Ar 0 17.7751 24.8852
48 1 Ar 0 21.3301 0
49 1 Ar 0 21.3301 3.55502
50 1 Ar 0 21.3301 7.11005
51 1 Ar 0 21.3301 10.6651
52 1 Ar 0 21.3301 14.2201
53 1 Ar 0 21.3301 17.7751
54 1 Ar 0 21.3301 21.3301
55 1 Ar 0 21.3301 24.8852
56 1 Ar 0 24.8852 0
57 1 Ar 0 24.8852 3.55502
58 1 Ar 0 24.8852 7.11005
59 1 Ar 0 24.8852 10.6651
60 1 Ar 0 24.8852 14.2201
61 1 Ar 0 24.8852 17.7751
62 1 Ar 0 24.8852 21.3301
63 1 Ar 0 24.8852 24.8852
64 1 Ar 3.55502 0 0
65 1 Ar 3.55502 0 3.55502
66 1 Ar 3.55502 0 7.11005
67 1 Ar 3.55502 0 10.6651
68 1 Ar 3.55502 0 14.2201
69 1 Ar 3.55502 0 17.7751
70 1 Ar 3.55502 0 21.3301
71 1 Ar 3.55502 0 24.8852
72 1 Ar 3.55502 3.55502 0
73 1 Ar 3.55502 3.55502 3.55502
74 1 Ar 3.55502 3.55502 7.11005
75 1 Ar 3.55502 3.55502 10.6651
76 1 Ar 3.55502 3.55502 14.2201
77 1 Ar 3.55502 3.55502 17.7751
78 1 Ar 3.55502 3.55502 21.3301
79 1 Ar 3.55502 3.55502 24.8852
80 1 Ar 3.55502 7.11005 0
81 1 Ar 3.55502 7.11005 3.55502
82 1 Ar 3.55502 7.11005 7.11005
83 1 Ar 3.55502 7.11005 10.6651
84 1 Ar 3.55502 7.11005 14.2201
85 1 Ar 3.55502 7.11005 17.7751
86 1 Ar 3.55502 7.11005 21.3301
87 1 Ar 3.55502 7.11005 24.8852
88 1 Ar 3.55502 10.6651 0
89 1 Ar 3.55502 10.6651 3.55502
90 1 Ar 3.55502 10.6651 7.11005
91 1 Ar 3.55502 10.6651 10.6651
92 1 Ar 3.55502 10.6651 14.2201
93 1 Ar 3.55502 10.6651 17.7751
94 1 Ar 3.55502 10.6651 21.3301
95 1 Ar 3.55502 10.6651 24.8852
96 1 Ar 3.55502 14.2201 0
97 1 Ar 3.55502 14.2201 3.55502
98 1 Ar 3.55502 14.2201 7.11005
99 1 Ar 3.55502 14.2201 10.6651
100 1 Ar 3.55502 14.2201 14.2201
101 1 Ar 3.55502 14.2201 17.7751
102 1 Ar 3.55502 14.2201 21.3301
103 1 Ar 3.55502 14.2201 24.8852
104 1 Ar 3.55502 17.7751 0
105 1 Ar 3.55502 17.7751 3.55502
106 1 Ar 3.55502 17.7751 7.11005
107 1 Ar 3.55502 17.7751 10.6651
108 1 Ar 3.55502 17.7751 14.2201
109 1 Ar 3.55502 17.7751 17.7751
110 1 Ar 3.55502 17.7751 21.3301
111 1 Ar 3.55502 17.7751 24.8852
112 1 Ar 3.55502 21.3301 0
113 1 Ar 3.55502 21.3301 3.55502
114 1 Ar 3.55502 21.3301 7.11005
115 1 Ar 3.55502 21.3301 10.6651
116 1 Ar 3.55502 21.3301 14.2201
117 1 Ar 3.55502 21.3301 17.7751
118 1 Ar 3.55502 21.3301 21.3301
119 1 Ar 3.55502 21.3301 24.8852
120 1 Ar 3.55502 24.8852 0
121 1 Ar 3.55502 24.8852 3.55502
122 1 Ar 3.55502 24.8852 7.11005
123 1 Ar 3.55502 24.8852 10.6651
124 1 Ar 3.55502 24.8852 14.2201
125 1 Ar 3.55502 24.8852 17.7751
126 1 Ar 3.55502 24.8852 21.3301
127 1 Ar 3.55502 24.8852 24.8852
128 1 Ar 7.11005 0 0
129 1 Ar 7.11005 0 3.55502
130 1 Ar 7.11005 0 7.11005
131 1 Ar 7.11005 0 10.6651
132 1 Ar 7.11005 0 14.2201
133 1 Ar 7.11005 0 17.7751
134 1 Ar 7.11005 0 21.3301
135 1 Ar 7.11005 0 24.8852
136 1 Ar 7.11005 3.55502 0
137 1 Ar 7.11005 3.55502 3.55502
138 1 Ar 7.11005 3.55502 7.11005
139 1 Ar 7.11005 3.55502 10.6651
140 1 Ar 7.11005 3.55502 14.2201
141 1 Ar 7.11005 3.55502 17.7751
142 1 Ar 7.11005 3.55502 21.3301
143 1 Ar 7.11005 3.55502 24.8852
144 1 Ar 7.11005 7.11005 0
145 1 Ar 7.11005 7.11005 3.55502
146 1 Ar 7.11005 7.11005 7.11005
147 1 Ar 7.11005 7.11005 10.6651
148 1 Ar 7.11005 7.11005 14.2201
149 1 Ar 7.11005 7.11005 17.7751
150 1 Ar 7.11005 7.11005 21.3301
151 1 Ar 7.11005 7.11005 24.8852
152 1 Ar 7.11005 10.6651 0
153 1 Ar 7.11005 10.6651 3.55502
154 1 Ar 7.11005 10.6651 7.11005
155 1 Ar 7.11005 10.6651 10.6651
156 1 Ar 7.11005 10.6651 14.2201
157 1 Ar 7.11005 10.6651 17.7751
158 1 Ar 7.11005 10.6651 21.3301
159 1 Ar 7.11005 10.6651 24.8852
160 1 Ar 7.11005 14.2201 0
161 1 Ar 7.11005 14.2201 3.55502
162 1 Ar 7.11005 14.2201 7.11005
163 1 Ar 7.11005 14.2201 10.6651
164 1 Ar 7.11005 14.2201 14.2201
165 1 Ar 7.11005 14.2201 17.7751
166 1 Ar 7.11005 14.2201 21.3301
167 1 Ar 7.11005 14.2201 24.8852
168 1 Ar 7.11005 17.7751 0
169 1 Ar 7.11005 17.7751 3.55502
170 1 Ar 7.11005 17.7751 7.11005
171 1 Ar 7.11005 17.7751 10.6651
172 1 Ar 7.11005 17.7751 14.2201
173 1 Ar 7.11005 17.7751 17.7751
174 1 Ar 7.11005 17.7751 21.3301
175 1 Ar 7.11005 17.7751 24.8852
176 1 Ar 7.11005 21.3301 0
177 1 Ar 7.11005 21.3301 3.55502
178 1 Ar 7.11005 21.3301 7.11005
179 1 Ar 7.11005 21.3301 10.6651
180 1 Ar 7.11005 21.3301 14.2201
181 1 Ar 7.11005 21.3301 17.7751
182 1 Ar 7.11005 21.3301 21.3301
183 1 Ar 7.11005 21.3301 24.8852
184 1 Ar 7.11005 24.8852 0
185 1 Ar 7.11005 24.8852 3.55502
186 1 Ar 7.11005 24.8852 7.11005
187 1 Ar 7.11005 24.8852 10.6651
188 1 Ar 7.11005 24.8852 14.2201
189 1 Ar 7.11005 24.8852 17.7751
190 1 Ar 7.11005 24.8852 21.3301
191 1 Ar 7.11005 24.8852 24.8852
192 1 Ar 10.6651 0 0
193 1 Ar 10.6651 0 3.55502
194 1 Ar 10.6651 0 7.11005
195 1 Ar 10.6651 0 10.6651
196 1 Ar 10.6651 0 14.2201
197 1 Ar 10.6651 0 17.7751
198 1 Ar 10.6651 0 21.3301
199 1 Ar 10.6651 0 24.8852
200 1 Ar 10.6651 3.55502 0
201 1 Ar 10.6651 3.55502 3.55502
202 1 Ar 10.6651 3.55502 7.11005
203 1 Ar 10.6651 3.55502 10.6651
204 1 Ar 10.6651 3.55502 14.2201
205 1 Ar 10.6651 3.55502 17.7751
206 1 Ar 10.6651 3.55502 21.3301
207 1 Ar 10.6651 3.55502 24.8852
208 1 Ar 10.6651 7.11005 0
209 1 Ar 10.6651 7.11005 3.55502
210 1 Ar 10.6651 7.11005 7.11005
211 1 Ar 10.6651 7.11005 10.6651
212 1 Ar 10.6651 7.11005 14.2201
213 1 Ar 10.6651 7.11005 17.7751
214 1 Ar 10.6651 7.11005 21.3301
215 1 Ar 10.6651 7.11005 24.8852
216 1 Ar 10.6651 10.6651 0
217 1 Ar 10.6651 10.6651 3.55502
218 1 Ar 10.6651 10.6651 7.11005
219 1 Ar 10.6651 10.6651 10.6651
220 1 Ar 10.6651 10.6651 14.2201
221 1 Ar 10.6651 10.6651 17.7751
222 1 Ar 10.6651 10.6651 21.3301
223 1 Ar 10.6651 10.6651 24.8852
224 1 Ar 10.6651 14.2201 0
225 1 Ar 10.6651 14.2201 3.55502
226 1 Ar 10.6651 14.2201 7.11005
227 1 Ar 10.6651 14.2201 10.6651
228 1 Ar 10.6651 14.2201 14.2201
229 1 Ar 10.6651 14.2201 17.7751
230 1 Ar 10.6651 14.2201 21.3301
231 1 Ar 10.6651 14.2201 24.8852
232 1 Ar 10.6651 17.7751 0
233 1 Ar 10.6651 17.7751 3.55502
234 1 Ar 10.6651 17.7751 7.11005
235 1 Ar 10.6651 17.7751 10.6651
236 1 Ar 10.6651 17.7751 14.2201
237 1 Ar 10.6651 17.7751 17.7751
238 1 Ar 10.6651 17.7751 21.3301
239 1 Ar 10.6651 17.7751 24.8852
240 1 Ar 10.6651 21.3301 0
241 1 Ar 10.6651 21.3301 3.55502
242 1 Ar 10.6651 21.3301 7.11005
243 1 Ar 10.6651 21.3301 10.6651
244 1 Ar 10.6651 21.3301 14.2201
245 1 Ar 10.6651 21.3301 17.7751
246 1 Ar 10.6651 21.3301 21.3301
247 1 Ar 10.6651 21.3301 24.8852
248 1 Ar 10.6651 24.8852 0
249 1 Ar 10.6651 24.8852 3.55502
250 1 Ar 10.6651 24.8852 7.11005
251 1 Ar 10.6651 24.8852 10.6651
252 1 Ar 10.6651 24.8852 14.2201
253 1 Ar 10.6651 24.8852 17.7751
254 1 Ar 10.6651 24.8852 21.3301
255 1 Ar 10.6651 24.8852 24.8852
256 1 Ar 14.2201 0 0
257 1 Ar 14.2201 0 3.55502
258 1 Ar 14.2201 0 7.11005
259 1 Ar 14.2201 0 10.6651
260 1 Ar 14.2201 0 14.2201
261 1 Ar 14.2201 0 17.7751
262 1 Ar 14.2201 0 21.3301
263 1 Ar 14.2201 0 24.8852
264 1 Ar 14.2201 3.55502 0
265 1 Ar 14.2201 3.55502 3.55502
266 1 Ar 14.2201 3.55502 7.11005
267 1 Ar 14.2201 3.55502 10.6651
268 1 Ar 14.2201 3.55502 14.2201
269 1 Ar 14.2201 3.55502 17.7751
270 1 Ar 14.2201 3.55502 21.3301
271 1 Ar 14.2201 3.55502 24.8852
272 1 Ar 14.2201 7.11005 0
273 1 Ar 14.2201 7.11005 3.55502
274 1 Ar 14.2201 7.11005 7.11005
275 1 Ar 14.2201 7.11005 10.6651
276 1 Ar 14.2201 7.11005 14.2201
277 1 Ar 14.2201 7.11005 17.7751
278 1 Ar 14.2201 7.11005 21.3301
279 1 Ar 14.2201 7.11005 24.8852
280 1 Ar 14.2201 10.6651 0
281 1 Ar 14.2201 10.6651 3.55502
282 1 Ar 14.2201 10.6651 7.11005
283 1 Ar 14.2201 10.6651 10.6651
284 1 Ar 14.2201 10.6651 14.2201
285 1 Ar 14.2201 10.6651 17.7751
286 1 Ar 14.2201 10.6651 21.3301
287 1 Ar 14.2201 10.6651 24.8852
288 1 Ar 14.2201 14.2201 0
289 1 Ar 14.2201 14.2201 3.55502
290 1 Ar 14.2201 14.2201 7.11005
291 1 Ar 14.2201 14.2201 10.6651
292 1 Ar 14.2201 14.2201 14.2201
293 1 Ar 14.2201 14.2201 17.7751
294 1 Ar 14.2201 14.2201 21.3301
295 1 Ar 14.2201 14.2201 24.8852
296 1 Ar 14.2201 17.7751 0
297 1 Ar 14.2201 17.7751 3.55502
298 1 Ar 14.2201 17.7751 7.11005
299 1 Ar 14.2201 17.7751 10.6651
300 1 Ar 14.2201 17.7751 14.2201
301 1 Ar 14.2201 17.7751 17.7751
302 1 Ar 14.2201 17.7751 21.3301
303 1 Ar 14.2201 17.7751 24.8852
304 1 Ar 14.2201 21.3301 0
305 1 Ar 14.2201 21.3301 3.55502
306 1 Ar 14.2201 21.3301 7.11005
307 1 Ar 14.2201 21.3301 10.6651
308 1 Ar 14.2201 21.3301 14.2201
309 1 Ar 14.2201 21.3301 17.7751
310 1 Ar 14.2201 21.3301 21.3301
311 1 Ar 14.2201 21.3301 24.8852
312 1 Ar 14.2201 24.8852 0
313 1 Ar 14.2201 24.8852 3.55502
314 1 Ar 14.2201 24.8852 7.11005
315 1 Ar 14.2201 24.8852 10.6651
316 1 Ar 14.2201 24.8852 14.2201
317 1 Ar 14.2201 24.8852 17.7751
318 1 Ar 14.2201 24.8852 21.3301
319 1 Ar 14.2201 24.8852 24.8852
320 1 Ar 17.7751 0 0
321 1 Ar 17.7751 0 3.55502
322 1 Ar 17.7751 0 7.11005
323 1 Ar 17.7751 0 10.6651
324 1 Ar 17.7751 0 14.2201
325 1 Ar 17.7751 0 17.7751
326 1 Ar 17.7751 0 21.3301
327 1 Ar 17.7751 0 24.8852
328 1 Ar 17.7751 3.55502 0
329 1 Ar 17.7751 3.55502 3.55502
330 1 Ar 17.7751 3.55502 7.11005
331 1 Ar 17.7751 3.55502 10.6651
332 1 Ar 17.7751 3.55502 14.2201
333 1 Ar 17.7751 3.55502 17.7751
334 1 Ar 17.7751 3.55502 21.3301
335 1 Ar 17.7751 3.55502 24.8852
336 1 Ar 17.7751 7.11005 0
337 1 Ar 17.7751 7.11005 3.55502
338 1 Ar 17.7751 7.11005 7.11005
339 1 Ar 17.7751 7.11005 10.6651
340 1 Ar 17.7751 7.11005 14.2201
341 1 Ar 17.7751 7.11005 17.7751
342 1 Ar 17.7751 7.11005 21.3301
343 1 Ar 17.7751 7.11005 24.8852
344 1 Ar 17.7751 10.6651 0
345 1 Ar 17.7751 10.6651 3.55502
346 1 Ar 17.7751 10.6651 7.11005
347 1 Ar 17.7751 10.6651 10.6651
348 1 Ar 17.7751 10.6651 14.2201
349 1 Ar 17.7751 10.6651 17.7751
350 1 Ar 17.7751 10.6651 21.3301
351 1 Ar 17.7751 10.6651 24.8852
352 1 Ar 17.7751 14.2201 0
353 1 Ar 17.7751 14.2201 3.55502
354 1 Ar 17.7751 14.2201 7.11005
355 1 Ar 17.7751 14.2201 10.6651
356 1 Ar 17.7751 14.2201 14.2201
357 1 Ar 17.7751 14.2201 17.7751
358 1 Ar 17.7751 14.2201 21.3301
359 1 Ar 17.7751 14.2201 24.8852
360 1 Ar 17.7751 17.7751 0
361 1 Ar 17.7751 17.7751 3.55502
362 1 Ar 17.7751 17.7751 7.11005
363 1 Ar 17.7751 17.7751 10.6651
364 1 Ar 17.7751 17.7751 14.2201
365 1 Ar 17.7751 17.7751 17.7751
366 1 Ar 17.7751 17.7751 21.3301
367 1 Ar 17.7751 17.7751 24.8852
368 1 Ar 17.7751 21.3301 0
369 1 Ar 17.7751 21.3301 3.55502
370 1 Ar 17.7751 21.3301 7.11005
371 1 Ar 17.7751 21.3301 10.6651
372 1 Ar 17.7751 21.3301 14.2201
373 1 Ar 17.7751 21.3301 17.7751
374 1 Ar 17.7751 21.3301 21.3301
375 1 Ar 17.7751 21.3301 24.8852
376 1 Ar 17.7751 24.8852 0
377 1 Ar 17.7751 24.8852 3.55502
378 1 Ar 17.7751 24.8852 7.11005
379 1 Ar 17.7751 24.8852 10.6651
380 1 Ar 17.7751 24.8852 14.2201
381 1 Ar 17.7751 24.8852 17.7751
382 1 Ar 17.7751 24.8852 21.3301
383 1 Ar 17.7751 24.8852 24.8852
384 1 Ar 21.3301 0 0
385 1 Ar 21.3301 0 3.55502
386 1 Ar 21.3301 0 7.11005
387 1 Ar 21.3301 0 10.6651
388 1 Ar 21.3301 0 14.2201
389 1 Ar 21.3301 0 17.7751
390 1 Ar 21.3301 0 21.3301
391 1 Ar 21.3301 0 24.8852
392 1 Ar 21.3301 3.55502 0
393 1 Ar 21.3301 3.55502 3.55502
394 1 Ar 21.3301 3.55502 7.11005
395 1 Ar 21.3301 3.55502 10.6651
396 1 Ar 21.3301 3.55502 14.2201
397 1 Ar 21.3301 3.55502 17.7751
398 1 Ar 21.3301 3.55502 21.3301
399 1 Ar 21.3301 3.55502 24.8852
400 1 Ar 21.3301 7.11005 0
401 1 Ar 21.3301 7.11005 3.55502
402 1 Ar 21.3301 7.11005 7.11005
403 1 Ar 21.3301 7.11005 10.6651
404 1 Ar 21.3301 7.11005 14.2201
405 1 Ar 21.3301 7.11005 17.7751
406 1 Ar 21.3301 7.11005 21.3301
407 1 Ar 21.3301 7.11005 24.8852
408 1 Ar 21.3301 10.6651 0
409 1 Ar 21.3301 10.6651 3.55502
410 1 Ar 21.3301 10.6651 7.11005
411 1 Ar 21.3301 10.6651 10.6651
412 1 Ar 21.3301 10.6651 14.2201
413 1 Ar 21.3301 10.6651 17.7751
414 1 Ar 21.3301 10.6651 21.3301
415 1 Ar 21.3301 10.6651 24.8852
416 1 Ar 21.3301 14.2201 0
417 1 Ar 21.3301 14.2201 3.55502
418 1 Ar 21.3301 14.2201 7.11005
419 1 Ar 21.3301 14.2201 10.6651
420 1 Ar 21.3301 14.2201 14.2201
421 1 Ar 21.3301 14.2201 17.7751
422 1 Ar 21.3301 14.2201 21.3301
423 1 Ar 21.3301 14.2201 24.8852
424 1 Ar 21.3301 17.7751 0
425 1 Ar 21.3301 17.7751 3.55502
426 1 Ar 21.3301 17.7751 7.11005
427 1 Ar 21.3301 17.7751 10.6651
428 1 Ar 21.3301 17.7751 14.2201
429 1 Ar 21.3301 17.7751 17.7751
430 1 Ar 21.3301 17.7751 21.3301
431 1 Ar 21.3301 17.7751 24.8852
432 1 Ar 21.3301 21.3301 0
433 1 Ar 21.3301 21.3301 3.55502
434 1 Ar 21.3301 21.3301 7.11005
435 1 Ar 21.3301 21.3301 10.6651
436 1 Ar 21.3301 21.3301 14.2201
437 1 Ar 21.3301 21.3301 17.7751
438 1 Ar 21.3301 21.3301 21.3301
439 1 Ar 21.3301 21.3301 24.8852
440 1 Ar 21.3301 24.8852 0
441 1 Ar 21.3301 24.8852 3.55502
442 1 Ar 21.3301 24.8852 7.11005
443 1 Ar 21.3301 24.8852 10.6651
444 1 Ar 21.3301 24.8852 14.2201
445 1 Ar 21.3301 24.8852 17.7751
446 1 Ar 21.3301 24.8852 21.3301
447 1 Ar 21.3301 24.8852 24.8852
448 1 Ar 24.8852 0 0
449 1 Ar 24.8852 0 3.55502
450 1 Ar 24.8852 0 7.11005
451 1 Ar 24.8852 0 10.6651
452 1 Ar 24.8852 0 14.2201
453 1 Ar 24.8852 0 17.7751
454 1 Ar 24.8852 0 21.3301
455 1 Ar 24.8852 0 24.8852
456 1 Ar 24.8852 3.55502 0
457 1 Ar 24.8852 3.55502 3.55502
458 1 Ar 24.8852 3.55502 7.11005
459 1 Ar 24.8852 3.55502 10.6651
460 1 Ar 24.8852 3.55502 14.2201
461 1 Ar 24.8852 3.55502 17.7751
462 1 Ar 24.8852 3.55502 21.3301
463 1 Ar 24.8852 3.55502 24.8852
464 1 Ar 24.8852 7.11005 0
465 1 Ar 24.8852 7.11005 3.55502
466 1 Ar 24.8852 7.11005 7.11005
467 1 Ar 24.8852 7.11005 10.6651
468 1 Ar 24.8852 7.11005 14.2201
469 1 Ar 24.8852 7.11005 17.7751
470 1 Ar 24.8852 7.11005 21.3301
471 1 Ar 24.8852 7.11005 24.8852
472 1 Ar 24.8852 10.6651 0
473 1 Ar 24.8852 10.6651 3.55502
474 1 Ar 24.8852 10.6651 7.11005
475 1 Ar 24.8852 10.6651 10.6651
476 1 Ar 24.8852 10.6651 14.2201
477 1 Ar 24.8852 10.6651 17.7751
478 1 Ar 24.8852 10.6651 21.3301
479 1 Ar 24.8852 10.6651 24.8852
480 1 Ar 24.8852 14.2201 0
481 1 Ar 24.8852 14.2201 3.55502
482 1 Ar 24.8852 14.2201 7.11005
483 1 Ar 24.8852 14.2201 10.6651
484 1 Ar 24.8852 14.2201 14.2201
485 1 Ar 24.8852 14.2201 17.7751
486 1 Ar 24.8852 14.2201 21.3301
487 1 Ar 24.8852 14.2201 24.8852
488 1 Ar 24.8852 17.7751 0
489 1 Ar 24.8852 17.7751 3.55502
490 1 Ar 24.8852 17.7751 7.11005
491 1 Ar 24.8852 17.7751 10.6651
492 1 Ar 24.8852 17.7751 14.2201
493 1 Ar 24.8852 17.7751 17.7751
494 1 Ar 24.8852 17.7751 21.3301
495 1 Ar 24.8852 17.7751 24.8852
496 1 Ar 24.8852 21.3301 0
497 1 Ar 24.8852 21.3301 3.55502
498 1 Ar 24.8852 21.3301 7.11005
499 1 Ar 24.8852 21.3301 10.6651
ITEM: TIMESTEP
19999
ITEM: NUMBER OF ATOMS
500
ITEM: BOX BOUNDS pp pp pp
0 31.9952
0 31.9952
0 31.9952
ITEM: ATOMS id type element xu yu zu
0 1 Ar 30.2117 30.9179 31.4373
1 1 Ar 31.065 31.9075 2.74449
2 1 Ar 0.32239 31.7591 7.90666
3 1 Ar 31.6069 31.3786 11.3479
4 1 Ar 1.24239 0.780906 14.4864
5 1 Ar 30.2402 30.9043 16.4518
6 1 Ar 31.6942 30.3195 21.0997
7 1 Ar 0.60155 30.1678 25.7358
8 1 Ar 28.5382 2.6603 1.11902
9 1 Ar 31.8163 3.69401 3.48529
10 1 Ar 0.778354 3.21634 6.69511
11 1 Ar 30.9861 3.09867 10.7508
12 1 Ar 0.702256 4.17214 14.498
13 1 Ar 31.3133 3.89333 18.529
14 1 Ar 31.7639 2.14355 21.7724
15 1 Ar 31.6067 3.38582 24.9699
16 1 Ar 0.0772213 6.8195 31.4421
17 1 Ar 1.0741 6.72569 2.72971
18 1 Ar 30.476 6.24891 8.32297
19 1 Ar 31.4254 7.60556 11.3137
20 1 Ar 0.032737 7.70937 14.4856
21 1 Ar 30.7618 7.05746 17.6578
22 1 Ar 0.0455451 6.59159 20.939
23 1 Ar 0.62371 7.05699 24.8503
24 1 Ar 29.5174 11.1619 0.627013
25 1 Ar 0.0854521 11.0014 3.21565
26 1 Ar 31.3341 10.4118 7.54308
27 1 Ar 31.8817 11.1714 11.07
28 1 Ar 30.7505 10.8507 14.884
29 1 Ar 0.192925 10.0437 18.2654
30 1 Ar 1.09421 9.62299 22.5439
31 1 Ar 0.421416 11.7505 27.9854
32 1 Ar 1.32968 15.6789 28.6856
33 1 Ar 30.0936 14.4954 3.6294
34 1 Ar 0.742982 13.4135 7.043
35 1 Ar 0.434544 15.5567 10.1193
36 1 Ar 31.5619 14.3321 13.4181
37 1 Ar 29.1576 13.4415 16.8789
38 1 Ar 0.182679 14.3832 20.8502
39 1 Ar 0.354406 13.1235 24.1417
40 1 Ar 31.4694 18.04 31.6724
41 1 Ar 31.9786 17.9701 3.36719
42 1 Ar 31.5113 17.8195 7.17842
43 1 Ar 30.1311 19.6471 11.4312
44 1 Ar 30.602 17.6926 14.7612
45 1 Ar 31.7696 16.642 17.4913
46 1 Ar 1.70059 18.2278 22.499
47 1 Ar 29.2912 17.8336 23.7902
48 1 Ar 31.941 21.5053 31.7283
49 1 Ar 31.6721 21.8089 3.43139
50 1 Ar 30.0704 21.1929 6.63481
51 1 Ar 31.975 23.4181 10.931
52 1 Ar 30.3733 21.7916 14.3368
53 1 Ar 31.3209 22.4341 17.7145
54 1 Ar 31.9008 21.4204 21.4923
55 1 Ar 0.317901 20.5718 25.0629
56 1 Ar 29.3825 24.0398 31.976
57 1 Ar 0.00471461 25.1484 4.41662
58 1 Ar 31.3771 25.1078 8.06046
59 1 Ar 31.8938 27.3178 10.6309
60 1 Ar 31.5805 26.2856 14.9917
61 1 Ar 0.401591 27.3263 18.6203
62 1 Ar 31.0974 25.7136 20.9054
63 1 Ar 0.719581 24.186 26.2642
64 1 Ar 3.88934 30.4823 0.355683
65 1 Ar 2.82846 31.9448 3.28829
66 1 Ar 3.97049 0.185487 6.52204
67 1 Ar 3.82549 0.104634 10.4104
68 1 Ar 2.95511 29.2634 13.7217
69 1 Ar 3.31099 31.0352 17.6226
70 1 Ar 3.25202 0.140509 21.9095
71 1 Ar 4.21975 31.6609 25.9739
72 1 Ar 2.96614 2.90242 0.525541
73 1 Ar 3.07272 3.92892 3.87896
74 1 Ar 4.13319 3.76573 7.56692
75 1 Ar 2.32493 3.70334 11.4993
76 1 Ar 4.11008 2.49928 14.3908
77 1 Ar 4.12244 2.65557 18.2697
78 1 Ar 3.01667 3.59681 21.5777
79 1 Ar 3.27059 2.94086 24.8085
80 1 Ar 4.35284 7.09432 31.726
81 1 Ar 4.44071 7.41415 3.04444
82 1 Ar 1.7014 7.9513 6.4733
83 1 Ar 2.99719 7.35726 10.3055
84 1 Ar 3.30477 6.78309 13.7984
85 1 Ar 2.77277 6.8048 18.5752
86 1 Ar 3.64163 6.76905 22.4295
87 1 Ar 3.68379 6.38232 27.3142
88 1 Ar 2.97851 10.5751 31.4068
89 1 Ar 3.50713 10.6182 2.58512
90 1 Ar 3.48147 11.4228 6.72736
91 1 Ar 3.45631 10.7916 10.6307
92 1 Ar 3.47876 11.1749 14.0126
93 1 Ar 4.31128 9.62883 17.1584
94 1 Ar 3.90223 10.1031 21.0368
95 1 Ar 3.56252 9.81249 28.0922
96 1 Ar 3.1727 14.1551 31.9017
97 1 Ar 3.74735 13.8423 3.92611
98 1 Ar 4.38394 14.6591 7.11889
99 1 Ar 3.5442 14.4219 11.2484
100 1 Ar 3.15906 14.6445 14.8608
101 1 Ar 2.34545 13.2817 17.7252
102 1 Ar 3.1592 14.6846 22.2026
103 1 Ar 4.31301 13.8796 26.8377
104 1 Ar 3.29161 17.5345 0.0278221
105 1 Ar 3.26592 17.6291 3.79094
106 1 Ar 3.16374 17.8505 7.05249
107 1 Ar 3.23107 18.1662 10.4399
108 1 Ar 3.35858 17.6079 13.9093
109 1 Ar 3.0617 17.1274 17.7686
110 1 Ar 4.91377 17.4547 20.5895
111 1 Ar 4.93064 18.9953 24.5351
112 1 Ar 4.32735 21.5335 30.6435
113 1 Ar 2.9334 21.0848 2.49818
114 1 Ar 1.96239 22.2489 6.96409
115 1 Ar 4.06264 21.4167 9.63355
116 1 Ar 2.51934 21.5017 12.9276
117 1 Ar 2.48005 20.621 17.0485
118 1 Ar 3.66813 21.1897 20.3732
119 1 Ar 3.97089 22.5164 24.2302
120 1 Ar 2.79419 25.2425 31.42
121 1 Ar 3.36806 24.4178 3.08096
122 1 Ar 3.07752 25.466 6.83865
123 1 Ar 3.17155 25.6438 10.459
124 1 Ar 3.10944 24.8066 13.7732
125 1 Ar 3.11522 24.1079 17.9758
126 1 Ar 3.86215 26.4418 20.4622
127 1 Ar 3.79376 26.4576 24.9542
128 1 Ar 7.09798 31.5374 0.260021
129 1 Ar 7.24007 0.314656 4.12566
130 1 Ar 7.29555 0.820475 7.79151
131 1 Ar 7.20092 30.6234 10.1562
132 1 Ar 6.43286 31.9513 13.3413
133 1 Ar 6.94533 0.239316 17.1903
134 1 Ar 7.01297 31.3451 21.0612
135 1 Ar 7.10476 0.664635 24.6716
136 1 Ar 7.48311 2.73823 0.59185
137 1 Ar 6.33283 3.66201 3.90006
138 1 Ar 7.62116 4.47181 7.29854
139 1 Ar 6.46713 3.8462 10.7407
140 1 Ar 7.59246 3.83598 14.1941
141 1 Ar 7.04653 3.84636 17.5974
142 1 Ar 6.50624 3.30172 21.8753
143 1 Ar 7.57225 3.91377 26.0831
144 1 Ar 7.59944 6.92487 31.8961
145 1 Ar 7.83844 6.93097 3.42946
146 1 Ar 6.06929 7.49189 6.70739
147 1 Ar 6.30973 7.19767 10.2502
148 1 Ar 7.44833 7.15644 13.548
149 1 Ar 6.77396 7.36943 17.6881
150 1 Ar 7.73369 6.76356 20.9366
151 1 Ar 7.78485 7.25271 24.9239
152 1 Ar 6.49469 10.4371 0.0346804
153 1 Ar 7.28953 10.9411 3.18098
154 1 Ar 7.01759 11.9101 7.20765
155 1 Ar 7.64894 10.5155 10.6647
156 1 Ar 6.82326 10.5338 14.9255
157 1 Ar 7.62433 11.1609 18.1177
158 1 Ar 7.05193 10.4416 22.2252
159 1 Ar 6.64866 10.6751 25.9928
160 1 Ar 7.08806 13.8544 31.3372
161 1 Ar 7.09846 14.5146 2.89626
162 1 Ar 8.07616 14.9594 6.84938
163 1 Ar 7.46738 14.5589 10.5318
164 1 Ar 6.26273 13.8878 13.6479
165 1 Ar 7.41688 14.6245 16.9195
166 1 Ar 6.36943 14.143 20.5996
167 1 Ar 7.30746 13.834 24.7993
168 1 Ar 7.46213 17.5436 31.638
169 1 Ar 7.07502 17.9328 3.42445
170 1 Ar 6.43655 18.106 7.73842
171 1 Ar 6.39982 17.987 11.1507
172 1 Ar 7.31871 17.2186 14.3554
173 1 Ar 6.8795 17.8853 17.6684
174 1 Ar 7.84549 16.5685 22.8291
175 1 Ar 7.36146 17.0147 26.843
176 1 Ar 7.50095 21.5009 0.23172
177 1 Ar 6.49995 21.3078 3.55235
178 1 Ar 6.62284 21.6578 7.11092
179 1 Ar 7.37335 21.5032 10.7424
180 1 Ar 6.2531 21.0497 14.1373
181 1 Ar 7.27545 21.2715 18.768
182 1 Ar 7.46459 19.6678 21.7077
183 1 Ar 7.21753 21.8297 25.087
184 1 Ar 7.81447 24.6037 31.1693
185 1 Ar 6.93718 24.8526 2.94361
186 1 Ar 6.30705 25.8763 7.60396
187 1 Ar 8.30466 24.9611 10.052
188 1 Ar 6.76619 24.5616 14.3636
189 1 Ar 6.48989 26.0307 17.63
190 1 Ar 6.3915 23.7258 22.0335
191 1 Ar 7.94964 25.0443 25.358
192 1 Ar 10.8701 31.1444 30.8134
193 1 Ar 10.8544 31.9841 2.47401
194 1 Ar 10.5884 31.7501 6.24826
195 1 Ar 10.1487 0.582083 10.4408
196 1 Ar 10.5586 0.275085 13.9735
197 1 Ar 10.4031 0.638161 18.682
198 1 Ar 12.3836 28.9627 23.1405
199 1 Ar 10.8503 30.648 26.504
200 1 Ar 10.9981 2.43771 0.0296852
201 1 Ar 10.04 3.41843 3.5598
202 1 Ar 10.9321 3.40863 6.89877
203 1 Ar 10.2421 3.95124 10.748
204 1 Ar 11.2458 3.74806 14.561
205 1 Ar 10.9146 3.8504 18.0169
206 1 Ar 10.4615 2.83304 21.7982
207 1 Ar 10.6371 2.11386 26.0748
208 1 Ar 10.8858 6.23605 0.16355
209 1 Ar 12.1194 6.4988 4.26061
210 1 Ar 9.44255 7.4468 7.46551
211 1 Ar 10.2347 7.43879 10.8083
212 1 Ar 10.8618 7.54837 14.0761
213 1 Ar 10.3699 6.95406 17.4161
214 1 Ar 11.128 6.56567 20.8524
215 1 Ar 11.2186 6.22313 24.5592
216 1 Ar 10.1818 10.2552 31.2451
217 1 Ar 10.623 9.75019 2.95513
218 1 Ar 10.4971 11.4584 6.41228
219 1 Ar 11.4378 11.0035 9.94042
220 1 Ar 10.4722 10.8396 13.2625
221 1 Ar 11.3314 10.4725 17.1857
222 1 Ar 10.5012 10.5928 21.1981
223 1 Ar 9.97259 9.63747 24.7157
224 1 Ar 10.6331 14.2055 0.277487
225 1 Ar 11.0035 14.4221 4.14234
226 1 Ar 11.3959 14.8485 8.03391
227 1 Ar 11.1823 14.2887 11.6565
228 1 Ar 9.85343 13.8895 14.9743
229 1 Ar 11.0947 14.3788 18.2454
230 1 Ar 11.2455 14.3649 21.6578
231 1 Ar 10.4283 14.517 25.3068
232 1 Ar 10.9986 17.4863 0.303031
233 1 Ar 10.8702 18.0505 3.94671
234 1 Ar 10.528 18.5893 7.51444
235 1 Ar 10.9007 17.6544 10.5774
236 1 Ar 10.8837 17.4491 13.8599
237 1 Ar 10.2815 18.2822 17.3707
238 1 Ar 11.4406 18.087 20.8643
239 1 Ar 10.0167 18.4455 24.8623
240 1 Ar 11.0503 21.0572 0.612349
241 1 Ar 10.3277 21.7087 4.0261
242 1 Ar 10.2098 22.0118 7.74724
243 1 Ar 11.0263 21.0328 11.2696
244 1 Ar 11.4396 20.6345 14.7502
245 1 Ar 11.3306 22.1255 17.9786
246 1 Ar 10.8496 21.242 22.2723
247 1 Ar 11.1484 21.975 25.6655
248 1 Ar 11.5281 24.8455 31.3664
249 1 Ar 10.9578 25.4657 3.94216
250 1 Ar 9.60698 26.8153 7.48242
251 1 Ar 11.6546 26.2411 10.6441
252 1 Ar 10.3612 25.5032 14.8553
253 1 Ar 10.3042 25.6938 18.7355
254 1 Ar 10.4935 25.2436 22.6212
255 1 Ar 12.0534 25.5368 25.9226
256 1 Ar 14.5301 29.5367 0.00553585
257 1 Ar 14.3376 1.05949 3.49633
258 1 Ar 14.314 0.471087 7.27411
259 1 Ar 14.8535 31.3829 10.5291
260 1 Ar 14.4911 31.4077 13.8902
261 1 Ar 13.6384 31.6999 17.6905
262 1 Ar 13.7765 31.9177 21.1479
263 1 Ar 14.0489 0.710775 24.9595
264 1 Ar 14.7952 3.01653 30.2317
265 1 Ar 13.6042 4.03395 2.08547
266 1 Ar 14.4385 4.15284 6.29323
267 1 Ar 13.7373 3.16727 10.0945
268 1 Ar 14.5926 2.96389 14.1729
269 1 Ar 14.4388 3.03491 17.8736
270 1 Ar 14.1415 3.95182 21.7879
271 1 Ar 13.0833 4.94262 27.5501
272 1 Ar 14.6899 6.74015 0.681883
273 1 Ar 15.6877 6.56553 4.52942
274 1 Ar 14.201 7.87405 7.87801
275 1 Ar 13.8165 7.13336 11.414
276 1 Ar 14.0384 6.45758 15.1343
277 1 Ar 14.1783 6.32504 18.5532
278 1 Ar 13.9975 7.51986 21.6646
279 1 Ar 14.07 7.69258 25.3949
280 1 Ar 13.4716 10.3892 31.9644
281 1 Ar 14.0308 10.1745 3.35668
282 1 Ar 13.983 10.9169 6.38304
283 1 Ar 14.8845 11.0628 9.9969
284 1 Ar 14.2743 11.034 13.4974
285 1 Ar 14.3674 9.94494 17.3958
286 1 Ar 14.0775 10.811 20.7247
287 1 Ar 13.9297 10.957 24.4746
288 1 Ar 14.4191 14.3719 29.5753
289 1 Ar 14.1216 13.7823 1.93576
290 1 Ar 14.0233 14.5011 5.16422
291 1 Ar 14.4777 14.7633 9.81126
292 1 Ar 14.0276 14.4847 13.7403
293 1 Ar 14.4243 13.9266 17.008
294 1 Ar 14.4505 14.6536 22.44
295 1 Ar 13.9441 14.5634 26.0423
296 1 Ar 13.6725 19.165 30.6494
297 1 Ar 14.1055 18.2632 2.71139
298 1 Ar 13.476 17.7762 6.78943
299 1 Ar 14.7437 18.2206 10.0957
300 1 Ar 14.131 18.6864 13.7549
301 1 Ar 13.6375 17.8775 17.3732
302 1 Ar 15.2017 18.0361 20.9901
303 1 Ar 13.9596 18.2037 25.1096
304 1 Ar 14.5628 22.114 31.7911
305 1 Ar 13.9529 22.5102 3.70237
306 1 Ar 14.2224 21.2131 7.27195
307 1 Ar 13.7551 22.9532 10.4652
308 1 Ar 15.3751 21.814 13.0979
309 1 Ar 14.724 21.4098 16.3123
310 1 Ar 14.1384 21.2799 20.5408
311 1 Ar 14.6457 22.4273 25.6557
312 1 Ar 14.877 25.4614 31.1289
313 1 Ar 14.3694 26.2209 3.25405
314 1 Ar 12.4508 25.021 7.22185
315 1 Ar 15.4995 25.6247 10.9012
316 1 Ar 13.5517 27.1297 13.8095
317 1 Ar 13.522 25.4691 17.8594
318 1 Ar 14.3057 25.4617 21.6298
319 1 Ar 15.3573 26.0397 25.3732
320 1 Ar 18.085 31.0558 31.7525
321 1 Ar 17.4938 0.136545 4.18385
322 1 Ar 18.0218 1.0991 7.23644
323 1 Ar 18.2617 31.2463 11.067
324 1 Ar 18.1392 31.8426 14.8628
325 1 Ar 17.0479 30.3924 17.8372
326 1 Ar 17.2774 0.36158 22.0233
327 1 Ar 16.8218 31.2271 26.4481
328 1 Ar 17.0969 2.52876 0.827717
329 1 Ar 17.4194 3.67787 4.34919
330 1 Ar 18.5372 4.40086 7.34235
331 1 Ar 17.6946 3.13573 10.4714
332 1 Ar 18.0882 3.08368 13.9401
333 1 Ar 17.6897 2.71162 17.2201
334 1 Ar 17.8194 3.88972 22.0232
335 1 Ar 16.7004 3.63925 25.6451
336 1 Ar 17.361 5.69676 31.0324
337 1 Ar 18.4573 6.58774 2.73197
338 1 Ar 18.2057 7.7752 7.44538
339 1 Ar 16.8359 6.40746 10.1098
340 1 Ar 17.7898 6.63143 13.557
341 1 Ar 18.1307 6.86939 17.2818
342 1 Ar 17.5185 7.17078 20.6415
343 1 Ar 17.6771 6.89783 24.4236
344 1 Ar 17.1589 9.62689 0.329341
345 1 Ar 17.5206 9.76973 4.08115
346 1 Ar 17.7342 11.5219 7.23124
347 1 Ar 18.1389 9.86499 10.9801
348 1 Ar 17.6383 10.6962 14.1052
349 1 Ar 18.1307 10.6952 17.1776
350 1 Ar 17.4607 10.6082 20.7249
351 1 Ar 18.3907 10.6605 24.5824
352 1 Ar 17.8835 14.0118 30.3306
353 1 Ar 17.6766 13.4294 2.45212
354 1 Ar 16.7744 14.5534 7.02573
355 1 Ar 17.5464 13.7336 10.671
356 1 Ar 17.4731 14.2698 14.1281
357 1 Ar 18.5443 14.0032 17.1705
358 1 Ar 17.6083 14.1682 21.0435
359 1 Ar 17.3958 14.4466 25.2789
360 1 Ar 16.1233 16.3592 0.598137
361 1 Ar 17.97 17.9582 3.73385
362 1 Ar 16.9843 18.031 7.25395
363 1 Ar 18.7369 17.7178 10.5155
364 1 Ar 17.8279 17.8198 13.6992
365 1 Ar 16.9264 17.1085 17.8717
366 1 Ar 18.7268 17.1257 21.9308
367 1 Ar 18.2669 18.3613 26.1806
368 1 Ar 17.9308 21.0549 31.7002
369 1 Ar 18.5342 21.5506 3.48097
370 1 Ar 18.1551 21.1815 6.84598
371 1 Ar 17.8225 22.0741 10.5891
372 1 Ar 18.1594 21.2048 14.9071
373 1 Ar 18.3957 20.4263 18.7399
374 1 Ar 17.7046 20.8347 22.0497
375 1 Ar 18.4102 22.0909 26.0278
376 1 Ar 18.5678 24.657 30.543
377 1 Ar 17.2336 24.7711 2.28587
378 1 Ar 17.8671 25.1676 6.62774
379 1 Ar 19.1573 25.1396 10.4838
380 1 Ar 17.4922 24.505 14.9791
381 1 Ar 16.9291 24.2954 18.5153
382 1 Ar 18.3514 24.4294 22.3381
383 1 Ar 17.8289 26.2614 27.2366
384 1 Ar 20.7123 31.6197 29.7581
385 1 Ar 21.6283 30.444 2.88953
386 1 Ar 20.4168 30.2909 7.53634
387 1 Ar 21.4998 0.135675 10.9289
388 1 Ar 21.2842 31.1252 14.2381
389 1 Ar 21.0218 0.314126 18.0448
390 1 Ar 20.9138 0.486656 21.8094
391 1 Ar 20.8586 31.8299 25.428
392 1 Ar 21.3606 2.95436 31.2313
393 1 Ar 22.1495 3.28899 3.03155
394 1 Ar 21.6297 2.74073 6.66897
395 1 Ar 21.8464 3.68791 10.3478
396 1 Ar 21.5725 3.06293 14.0075
397 1 Ar 21.3648 3.87548 17.1301
398 1 Ar 20.9552 3.70808 20.2866
399 1 Ar 21.6198 3.56593 25.3643
400 1 Ar 22.4251 6.54566 31.3609
401 1 Ar 21.619 7.62837 3.59212
402 1 Ar 22.0077 6.65366 6.75763
403 1 Ar 22.5189 6.82091 10.7577
404 1 Ar 20.9139 7.47024 14.8199
405 1 Ar 21.4434 6.96617 18.3864
406 1 Ar 21.881 6.71456 21.6847
407 1 Ar 21.0595 7.79547 25.1839
408 1 Ar 20.0009 10.8367 29.8082
409 1 Ar 21.3086 11.7328 3.78423
410 1 Ar 21.1478 11.0398 7.12091
411 1 Ar 21.7013 10.7683 10.5519
412 1 Ar 21.4266 10.6313 14.4895
413 1 Ar 21.9168 10.8648 18.2204
414 1 Ar 20.9902 10.081 22.0486
415 1 Ar 22.2936 10.757 26.5909
416 1 Ar 21.8499 14.0768 31.0333
417 1 Ar 22.1995 14.8712 3.18169
418 1 Ar 21.289 14.4749 6.79336
419 1 Ar 21.0546 14.3204 10.4233
420 1 Ar 21.1687 14.1718 14.8019
421 1 Ar 22.3975 14.7322 18.458
422 1 Ar 21.3916 14.3338 22.2785
423 1 Ar 20.8259 14.9517 27.1883
424 1 Ar 20.9455 17.4553 31.8543
425 1 Ar 21.6968 18.3004 4.17379
426 1 Ar 21.637 18.2025 7.29653
427 1 Ar 22.2127 17.8826 10.2951
428 1 Ar 22.5265 17.1173 14.3734
429 1 Ar 20.6068 17.7423 17.4735
430 1 Ar 22.5177 18.377 20.5702
431 1 Ar 21.5584 17.9784 24.7701
432 1 Ar 21.4043 21.8338 31.048
433 1 Ar 22.1558 21.2966 2.72336
434 1 Ar 21.6776 21.5113 7.13022
435 1 Ar 21.2146 22.0183 10.8931
436 1 Ar 21.3932 21.1151 14.1
437 1 Ar 21.4082 21.6811 17.9297
438 1 Ar 21.0948 22.0353 21.3107
439 1 Ar 22.6943 21.3107 25.0666
440 1 Ar 20.5754 26.4705 1.04122
441 1 Ar 22.6062 26.016 4.32757
442 1 Ar 21.0243 26.1714 7.34408
443 1 Ar 22.0033 27.4292 11.2516