ITEM: TIMESTEP
-1
ITEM: NUMBER OF ATOMS
500
ITEM: BOX BOUNDS pp pp pp
0 46.1451
0 46.1451
0 46.1451
ITEM: ATOMS id type element xu yu zu
0 1 Ar 0 0 0
1 1 Ar 0 0 5.12723
2 1 Ar 0 0 10.2545
3 1 Ar 0 0 15.3817
4 1 Ar 0 0 20.5089
5 1 Ar 0 0 25.6362
6 1 Ar 0 0 30.7634
7 1 Ar 0 0 35.8906
8 1 Ar 0 5.12723 0
9 1 Ar 0 5.12723 5.12723
10 1 Ar 0 5.12723 10.2545
11 1 Ar 0 5.12723 15.3817
12 1 Ar 0 5.12723 20.5089
13 1 Ar 0 5.12723 25.6362
14 1 Ar 0 5.12723 30.7634
15 1 Ar 0 5.12723 35.8906
16 1 Ar 0 10.2545 0
17 1 Ar 0 10.2545 5.12723
18 1 Ar 0 10.2545 10.2545
19 1 Ar 0 10.2545 15.3817
20 1 Ar 0 10.2545 20.5089
21 1 Ar 0 10.2545 25.6362
22 1 Ar 0 10.2545 30.7634
23 1 Ar 0 10.2545 35.8906
24 1 Ar 0 15.3817 0
25 1 Ar 0 15.3817 5.12723
26 1 Ar 0 15.3817 10.2545
27 1 Ar 0 15.3817 15.3817
28 1 Ar 0 15.3817 20.5089
29 1 Ar 0 15.3817 25.6362
30 1 Ar 0 15.3817 30.7634
31 1 Ar 0 15.3817 35.8906
32 1 Ar 0 20.5089 0
33 1 Ar 0 20.5089 5.12723
34 1 Ar 0 20.5089 10.2545
35 1 Ar 0 20.5089 15.3817
36 1 Ar 0 20.5089 20.5089
37 1 Ar 0 20.5089 25.6362
38 1 Ar 0 20.5089 30.7634
39 1 Ar 0 20.5089 35.8906
40 1 Ar 0 25.6362 0
41 1 Ar 0 25.6362 5.12723
42 1 Ar 0 25.6362 10.2545
43 1 Ar 0 25.6362 15.3817
44 1 Ar 0 25.6362 20.5089
45 1 Ar 0 25.6362 25.6362
46 1 Ar 0 25.6362 30.7634
47 1 Ar 0 25.6362 35.8906
48 1 Ar 0 30.7634 0
49 1 Ar 0 30.7634 5.12723
50 1 Ar 0 30.7634 10.2545
51 1 Ar 0 30.7634 15.3817
52 1 Ar 0 30.7634 20.5089
53 1 Ar 0 30.7634 25.6362
54 1 Ar 0 30.7634 30.7634
55 1 Ar 0 30.7634 35.8906
56 1 Ar 0 35.8906 0
57 1 Ar 0 35.8906 5.12723
58 1 Ar 0 35.8906 10.2545
59 1 Ar 0 35.8906 15.3817
60 1 Ar 0 35.8906 20.5089
61 1 Ar 0 35.8906 25.6362
62 1 Ar 0 35.8906 30.7634
63 1 Ar 0 35.8906 35.8906
64 1 Ar 5.12723 0 0
65 1 Ar 5.12723 0 5.12723
66 1 Ar 5.12723 0 10.2545
67 1 Ar 5.12723 0 15.3817
68 1 Ar 5.12723 0 20.5089
69 1 Ar 5.12723 0 25.6362
70 1 Ar 5.12723 0 30.7634
71 1 Ar 5.12723 0 35.8906
72 1 Ar 5.12723 5.12723 0
73 1 Ar 5.12723 5.12723 5.12723
74 1 Ar 5.12723 5.12723 10.2545
75 1 Ar 5.12723 5.12723 15.3817
76 1 Ar 5.12723 5.12723 20.5089
77 1 Ar 5.12723 5.12723 25.6362
78 1 Ar 5.12723 5.12723 30.7634
79 1 Ar 5.12723 5.12723 35.8906
80 1 Ar 5.12723 10.2545 0
81 1 Ar 5.12723 10.2545 5.12723
82 1 Ar 5.12723 10.2545 10.2545
83 1 Ar 5.12723 10.2545 15.3817
84 1 Ar 5.12723 10.2545 20.5089
85 1 Ar 5.12723 10.2545 25.6362
86 1 Ar 5.12723 10.2545 30.7634
87 1 Ar 5.12723 10.2545 35.8906
88 1 Ar 5.12723 15.3817 0
89 1 Ar 5.12723 15.3817 5.12723
90 1 Ar 5.12723 15.3817 10.2545
91 1 Ar 5.12723 15.3817 15.3817
92 1 Ar 5.12723 15.3817 20.5089
93 1 Ar 5.12723 15.3817 25.6362
94 1 Ar 5.12723 15.3817 30.7634
95 1 Ar 5.12723 15.3817 35.8906
96 1 Ar 5.12723 20.5089 0
97 1 Ar 5.12723 20.5089 5.12723
98 1 Ar 5.12723 20.5089 10.2545
99 1 Ar 5.12723 20.5089 15.3817
100 1 Ar 5.12723 20.5089 20.5089
101 1 Ar 5.12723 20.5089 25.6362
102 1 Ar 5.12723 20.5089 30.7634
103 1 Ar 5.12723 20.5089 35.8906
104 1 Ar 5.12723 25.6362 0
105 1 Ar 5.12723 25.6362 5.12723
106 1 Ar 5.12723 25.6362 10.2545
107 1 Ar 5.12723 25.6362 15.3817
108 1 Ar 5.12723 25.6362 20.5089
109 1 Ar 5.12723 25.6362 25.6362
110 1 Ar 5.12723 25.6362 30.7634
111 1 Ar 5.12723 25.6362 35.8906
112 1 Ar 5.12723 30.7634 0
113 1 Ar 5.12723 30.7634 5.12723
114 1 Ar 5.12723 30.7634 10.2545
115 1 Ar 5.12723 30.7634 15.3817
116 1 Ar 5.12723 30.7634 20.5089
117 1 Ar 5.12723 30.7634 25.6362
118 1 Ar 5.12723 30.7634 30.7634
119 1 Ar 5.12723 30.7634 35.8906
120 1 Ar 5.12723 35.8906 0
121 1 Ar 5.12723 35.8906 5.12723
122 1 Ar 5.12723 35.8906 10.2545
123 1 Ar 5.12723 35.8906 15.3817
124 1 Ar 5.12723 35.8906 20.5089
125 1 Ar 5.12723 35.8906 25.6362
126 1 Ar 5.12723 35.8906 30.7634
127 1 Ar 5.12723 35.8906 35.8906
128 1 Ar 10.2545 0 0
129 1 Ar 10.2545 0 5.12723
130 1 Ar 10.2545 0 10.2545
131 1 Ar 10.2545 0 15.3817
132 1 Ar 10.2545 0 20.5089
133 1 Ar 10.2545 0 25.6362
134 1 Ar 10.2545 0 30.7634
135 1 Ar 10.2545 0 35.8906
136 1 Ar 10.2545 5.12723 0
137 1 Ar 10.2545 5.12723 5.12723
138 1 Ar 10.2545 5.12723 10.2545
139 1 Ar 10.2545 5.12723 15.3817
140 1 Ar 10.2545 5.12723 20.5089
141 1 Ar 10.2545 5.12723 25.6362
142 1 Ar 10.2545 5.12723 30.7634
143 1 Ar 10.2545 5.12723 35.8906
144 1 Ar 10.2545 10.2545 0
145 1 Ar 10.2545 10.2545 5.12723
146 1 Ar 10.2545 10.2545 10.2545
147 1 Ar 10.2545 10.2545 15.3817
148 1 Ar 10.2545 10.2545 20.5089
149 1 Ar 10.2545 10.2545 25.6362
150 1 Ar 10.2545 10.2545 30.7634
151 1 Ar 10.2545 10.2545 35.8906
152 1 Ar 10.2545 15.3817 0
153 1 Ar 10.2545 15.3817 5.12723
154 1 Ar 10.2545 15.3817 10.2545
155 1 Ar 10.2545 15.3817 15.3817
156 1 Ar 10.2545 15.3817 20.5089
157 1 Ar 10.2545 15.3817 25.6362
158 1 Ar 10.2545 15.3817 30.7634
159 1 Ar 10.2545 15.3817 35.8906
160 1 Ar 10.2545 20.5089 0
161 1 Ar 10.2545 20.5089 5.12723
162 1 Ar 10.2545 20.5089 10.2545
163 1 Ar 10.2545 20.5089 15.3817
164 1 Ar 10.2545 20.5089 20.5089
165 1 Ar 10.2545 20.5089 25.6362
166 1 Ar 10.2545 20.5089 30.7634
167 1 Ar 10.2545 20.5089 35.8906
168 1 Ar 10.2545 25.6362 0
169 1 Ar 10.2545 25.6362 5.12723
170 1 Ar 10.2545 25.6362 10.2545
171 1 Ar 10.2545 25.6362 15.3817
172 1 Ar 10.2545 25.6362 20.5089
173 1 Ar 10.2545 25.6362 25.6362
174 1 Ar 10.2545 25.6362 30.7634
175 1 Ar 10.2545 25.6362 35.8906
176 1 Ar 10.2545 30.7634 0
177 1 Ar 10.2545 30.7634 5.12723
178 1 Ar 10.2545 30.7634 10.2545
179 1 Ar 10.2545 30.7634 15.3817
180 1 Ar 10.2545 30.7634 20.5089
181 1 Ar 10.2545 30.7634 25.6362
182 1 Ar 10.2545 30.7634 30.7634
183 1 Ar 10.2545 30.7634 35.8906
184 1 Ar 10.2545 35.8906 0
185 1 Ar 10.2545 35.8906 5.12723
186 1 Ar 10.2545 35.8906 10.2545
187 1 Ar 10.2545 35.8906 15.3817
188 1 Ar 10.2545 35.8906 20.5089
189 1 Ar 10.2545 35.8906 25.6362
190 1 Ar 10.2545 35.8906 30.7634
191 1 Ar 10.2545 35.8906 35.8906
192 1 Ar 15.3817 0 0
193 1 Ar 15.3817 0 5.12723
194 1 Ar 15.3817 0 10.2545
195 1 Ar 15.3817 0 15.3817
196 1 Ar 15.3817 0 20.5089
197 1 Ar 15.3817 0 25.6362
198 1 Ar 15.3817 0 30.7634
199 1 Ar 15.3817 0 35.8906
200 1 Ar 15.3817 5.12723 0
201 1 Ar 15.3817 5.12723 5.12723
202 1 Ar 15.3817 5.12723 10.2545
203 1 Ar 15.3817 5.12723 15.3817
204 1 Ar 15.3817 5.12723 20.5089
205 1 Ar 15.3817 5.12723 25.6362
206 1 Ar 15.3817 5.12723 30.7634
207 1 Ar 15.3817 5.12723 35.8906
208 1 Ar 15.3817 10.2545 0
209 1 Ar 15.3817 10.2545 5.12723
210 1 Ar 15.3817 10.2545 10.2545
211 1 Ar 15.3817 10.2545 15.3817
212 1 Ar 15.3817 10.2545 20.5089
213 1 Ar 15.3817 10.2545 25.6362
214 1 Ar 15.3817 10.2545 30.7634
215 1 Ar 15.3817 10.2545 35.8906
216 1 Ar 15.3817 15.3817 0
217 1 Ar 15.3817 15.3817 5.12723
218 1 Ar 15.3817 15.3817 10.2545
219 1 Ar 15.3817 15.3817 15.3817
220 1 Ar 15.3817 15.3817 20.5089
221 1 Ar 15.3817 15.3817 25.6362
222 1 Ar 15.3817 15.3817 30.7634
223 1 Ar 15.3817 15.3817 35.8906
224 1 Ar 15.3817 20.5089 0
225 1 Ar 15.3817 20.5089 5.12723
226 1 Ar 15.3817 20.5089 10.2545
227 1 Ar 15.3817 20.5089 15.3817
228 1 Ar 15.3817 20.5089 20.5089
229 1 Ar 15.3817 20.5089 25.6362
230 1 Ar 15.3817 20.5089 30.7634
231 1 Ar 15.3817 20.5089 35.8906
232 1 Ar 15.3817 25.6362 0
233 1 Ar 15.3817 25.6362 5.12723
234 1 Ar 15.3817 25.6362 10.2545
235 1 Ar 15.3817 25.6362 15.3817
236 1 Ar 15.3817 25.6362 20.5089
237 1 Ar 15.3817 25.6362 25.6362
238 1 Ar 15.3817 25.6362 30.7634
239 1 Ar 15.3817 25.6362 35.8906
240 1 Ar 15.3817 30.7634 0
241 1 Ar 15.3817 30.7634 5.12723
242 1 Ar 15.3817 30.7634 10.2545
243 1 Ar 15.3817 30.7634 15.3817
244 1 Ar 15.3817 30.7634 20.5089
245 1 Ar 15.3817 30.7634 25.6362
246 1 Ar 15.3817 30.7634 30.7634
247 1 Ar 15.3817 30.7634 35.8906
248 1 Ar 15.3817 35.8906 0
249 1 Ar 15.3817 35.8906 5.12723
250 1 Ar 15.3817 35.8906 10.2545
251 1 Ar 15.3817 35.8906 15.3817
252 1 Ar 15.3817 35.8906 20.5089
253 1 Ar 15.3817 35.8906 25.6362
254 1 Ar 15.3817 35.8906 30.7634
255 1 Ar 15.3817 35.8906 35.8906
256 1 Ar 20.5089 0 0
257 1 Ar 20.5089 0 5.12723
258 1 Ar 20.5089 0 10.2545
259 1 Ar 20.5089 0 15.3817
260 1 Ar 20.5089 0 20.5089
261 1 Ar 20.5089 0 25.6362
262 1 Ar 20.5089 0 30.7634
263 1 Ar 20.5089 0 35.8906
264 1 Ar 20.5089 5.12723 0
265 1 Ar 20.5089 5.12723 5.12723
266 1 Ar 20.5089 5.12723 10.2545
267 1 Ar 20.5089 5.12723 15.3817
268 1 Ar 20.5089 5.12723 20.5089
269 1 Ar 20.5089 5.12723 25.6362
270 1 Ar 20.5089 5.12723 30.7634
271 1 Ar 20.5089 5.12723 35.8906
272 1 Ar 20.5089 10.2545 0
273 1 Ar 20.5089 10.2545 5.12723
274 1 Ar 20.5089 10.2545 10.2545
275 1 Ar 20.5089 10.2545 15.3817
276 1 Ar 20.5089 10.2545 20.5089
277 1 Ar 20.5089 10.2545 25.6362
278 1 Ar 20.5089 10.2545 30.7634
279 1 Ar 20.5089 10.2545 35.8906
280 1 Ar 20.5089 15.3817 0
281 1 Ar 20.5089 15.3817 5.12723
282 1 Ar 20.5089 15.3817 10.2545
283 1 Ar 20.5089 15.3817 15.3817
284 1 Ar 20.5089 15.3817 20.5089
285 1 Ar 20.5089 15.3817 25.6362
286 1 Ar 20.5089 15.3817 30.7634
287 1 Ar 20.5089 15.3817 35.8906
288 1 Ar 20.5089 20.5089 0
289 1 Ar 20.5089 20.5089 5.12723
290 1 Ar 20.5089 20.5089 10.2545
291 1 Ar 20.5089 20.5089 15.3817
292 1 Ar 20.5089 20.5089 20.5089
293 1 Ar 20.5089 20.5089 25.6362
294 1 Ar 20.5089 20.5089 30.7634
295 1 Ar 20.5089 20.5089 35.8906
296 1 Ar 20.5089 25.6362 0
297 1 Ar 20.5089 25.6362 5.12723
298 1 Ar 20.5089 25.6362 10.2545
299 1 Ar 20.5089 25.6362 15.3817
300 1 Ar 20.5089 25.6362 20.5089
301 1 Ar 20.5089 25.6362 25.6362
302 1 Ar 20.5089 25.6362 30.7634
303 1 Ar 20.5089 25.6362 35.8906
304 1 Ar 20.5089 30.7634 0
305 1 Ar 20.5089 30.7634 5.12723
306 1 Ar 20.5089 30.7634 10.2545
307 1 Ar 20.5089 30.7634 15.3817
308 1 Ar 20.5089 30.7634 20.5089
309 1 Ar 20.5089 30.7634 25.6362
310 1 Ar 20.5089 30.7634 30.7634
311 1 Ar 20.5089 30.7634 35.8906
312 1 Ar 20.5089 35.8906 0
313 1 Ar 20.5089 35.8906 5.12723
314 1 Ar 20.5089 35.8906 10.2545
315 1 Ar 20.5089 35.8906 15.3817
316 1 Ar 20.5089 35.8906 20.5089
317 1 Ar 20.5089 35.8906 25.6362
318 1 Ar 20.5089 35.8906 30.7634
319 1 Ar 20.5089 35.8906 35.8906
320 1 Ar 25.6362 0 0
321 1 Ar 25.6362 0 5.12723
322 1 Ar 25.6362 0 10.2545
323 1 Ar 25.6362 0 15.3817
324 1 Ar 25.6362 0 20.5089
325 1 Ar 25.6362 0 25.6362
326 1 Ar 25.6362 0 30.7634
327 1 Ar 25.6362 0 35.8906
328 1 Ar 25.6362 5.12723 0
329 1 Ar 25.6362 5.12723 5.12723
330 1 Ar 25.6362 5.12723 10.2545
331 1 Ar 25.6362 5.12723 15.3817
332 1 Ar 25.6362 5.12723 20.5089
333 1 Ar 25.6362 5.12723 25.6362
334 1 Ar 25.6362 5.12723 30.7634
335 1 Ar 25.6362 5.12723 35.8906
336 1 Ar 25.6362 10.2545 0
337 1 Ar 25.6362 10.2545 5.12723
338 1 Ar 25.6362 10.2545 10.2545
339 1 Ar 25.6362 10.2545 15.3817
340 1 Ar 25.6362 10.2545 20.5089
341 1 Ar 25.6362 10.2545 25.6362
342 1 Ar 25.6362 10.2545 30.7634
343 1 Ar 25.6362 10.2545 35.8906
344 1 Ar 25.6362 15.3817 0
345 1 Ar 25.6362 15.3817 5.12723
346 1 Ar 25.6362 15.3817 10.2545
347 1 Ar 25.6362 15.3817 15.3817
348 1 Ar 25.6362 15.3817 20.5089
349 1 Ar 25.6362 15.3817 25.6362
350 1 Ar 25.6362 15.3817 30.7634
351 1 Ar 25.6362 15.3817 35.8906
352 1 Ar 25.6362 20.5089 0
353 1 Ar 25.6362 20.5089 5.12723
354 1 Ar 25.6362 20.5089 10.2545
355 1 Ar 25.6362 20.5089 15.3817
356 1 Ar 25.6362 20.5089 20.5089
357 1 Ar 25.6362 20.5089 25.6362
358 1 Ar 25.6362 20.5089 30.7634
359 1 Ar 25.6362 20.5089 35.8906
360 1 Ar 25.6362 25.6362 0
361 1 Ar 25.6362 25.6362 5.12723
362 1 Ar 25.6362 25.6362 10.2545
363 1 Ar 25.6362 25.6362 15.3817
364 1 Ar 25.6362 25.6362 20.5089
365 1 Ar 25.6362 25.6362 25.6362
366 1 Ar 25.6362 25.6362 30.7634
367 1 Ar 25.6362 25.6362 35.8906
368 1 Ar 25.6362 30.7634 0
369 1 Ar 25.6362 30.7634 5.12723
370 1 Ar 25.6362 30.7634 10.2545
371 1 Ar 25.6362 30.7634 15.3817
372 1 Ar 25.6362 30.7634 20.5089
373 1 Ar 25.6362 30.7634 25.6362
374 1 Ar 25.6362 30.7634 30.7634
375 1 Ar 25.6362 30.7634 35.8906
376 1 Ar 25.6362 35.8906 0
377 1 Ar 25.6362 35.8906 5.12723
378 1 Ar 25.6362 35.8906 10.2545
379 1 Ar 25.6362 35.8906 15.3817
380 1 Ar 25.6362 35.8906 20.5089
381 1 Ar 25.6362 35.8906 25.6362
382 1 Ar 25.6362 35.8906 30.7634
383 1 Ar 25.6362 35.8906 35.8906
384 1 Ar 30.7634 0 0
385 1 Ar 30.7634 0 5.12723
386 1 Ar 30.7634 0 10.2545
387 1 Ar 30.7634 0 15.3817
388 1 Ar 30.7634 0 20.5089
389 1 Ar 30.7634 0 25.6362
390 1 Ar 30.7634 0 30.7634
391 1 Ar 30.7634 0 35.8906
392 1 Ar 30.7634 5.12723 0
393 1 Ar 30.7634 5.12723 5.12723
394 1 Ar 30.7634 5.12723 10.2545
395 1 Ar 30.7634 5.12723 15.3817
396 1 Ar 30.7634 5.12723 20.5089
397 1 Ar 30.7634 5.12723 25.6362
398 1 Ar 30.7634 5.12723 30.7634
399 1 Ar 30.7634 5.12723 35.8906
400 1 Ar 30.7634 10.2545 0
401 1 Ar 30.7634 10.2545 5.12723
402 1 Ar 30.7634 10.2545 10.2545
403 1 Ar 30.7634 10.2545 15.3817
404 1 Ar 30.7634 10.2545 20.5089
405 1 Ar 30.7634 10.2545 25.6362
406 1 Ar 30.7634 10.2545 30.7634
407 1 Ar 30.7634 10.2545 35.8906
408 1 Ar 30.7634 15.3817 0
409 1 Ar 30.7634 15.3817 5.12723
410 1 Ar 30.7634 15.3817 10.2545
411 1 Ar 30.7634 15.3817 15.3817
412 1 Ar 30.7634 15.3817 20.5089
413 1 Ar 30.7634 15.3817 25.6362
414 1 Ar 30.7634 15.3817 30.7634
415 1 Ar 30.7634 15.3817 35.8906
416 1 Ar 30.7634 20.5089 0
417 1 Ar 30.7634 20.5089 5.12723
418 1 Ar 30.7634 20.5089 10.2545
419 1 Ar 30.7634 20.5089 15.3817
420 1 Ar 30.7634 20.5089 20.5089
421 1 Ar 30.7634 20.5089 25.6362
422 1 Ar 30.7634 20.5089 30.7634
423 1 Ar 30.7634 20.5089 35.8906
424 1 Ar 30.7634 25.6362 0
425 1 Ar 30.7634 25.6362 5.12723
426 1 Ar 30.7634 25.6362 10.2545
427 1 Ar 30.7634 25.6362 15.3817
428 1 Ar 30.7634 25.6362 20.5089
429 1 Ar 30.7634 25.6362 25.6362
430 1 Ar 30.7634 25.6362 30.7634
431 1 Ar 30.7634 25.6362 35.8906
432 1 Ar 30.7634 30.7634 0
433 1 Ar 30.7634 30.7634 5.12723
434 1 Ar 30.7634 30.7634 10.2545
435 1 Ar 30.7634 30.7634 15.3817
436 1 Ar 30.7634 30.7634 20.5089
437 1 Ar 30.7634 30.7634 25.6362
438 1 Ar 30.7634 30.7634 30.7634
439 1 Ar 30.7634 30.7634 35.8906
440 1 Ar 30.7634 35.8906 0
441 1 Ar 30.7634 35.8906 5.12723
442 1 Ar 30.7634 35.8906 10.2545
443 1 Ar 30.7634 35.8906 15.3817
444 1 Ar 30.7634 35.8906 20.5089
445 1 Ar 30.7634 35.8906 25.6362
446 1 Ar 30.7634 35.8906 30.7634
447 1 Ar 30.7634 35.8906 35.8906
448 1 Ar 35.8906 0 0
449 1 Ar 35.8906 0 5.12723
450 1 Ar 35.8906 0 10.2545
451 1 Ar 35.8906 0 15.3817
452 1 Ar 35.8906 0 20.5089
453 1 Ar 35.8906 0 25.6362
454 1 Ar 35.8906 0 30.7634
455 1 Ar 35.8906 0 35.8906
456 1 Ar 35.8906 5.12723 0
457 1 Ar 35.8906 5.12723 5.12723
458 1 Ar 35.8906 5.12723 10.2545
459 1 Ar 35.8906 5.12723 15.3817
460 1 Ar 35.8906 5.12723 20.5089
461 1 Ar 35.8906 5.12723 25.6362
462 1 Ar 35.8906 5.12723 30.7634
463 1 Ar 35.8906 5.12723 35.8906
464 1 Ar 35.8906 10.2545 0
465 1 Ar 35.8906 10.2545 5.12723
466 1 Ar 35.8906 10.2545 10.2545
467 1 Ar 35.8906 10.2545 15.3817
468 1 Ar 35.8906 10.2545 20.5089
469 1 Ar 35.8906 10.2545 25.6362
470 1 Ar 35.8906 10.2545 30.7634
471 1 Ar 35.8906 10.2545 35.8906
472 1 Ar 35.8906 15.3817 0
473 1 Ar 35.8906 15.3817 5.12723
474 1 Ar 35.8906 15.3817 10.2545
475 1 Ar 35.8906 15.3817 15.3817
476 1 Ar 35.8906 15.3817 20.5089
477 1 Ar 35.8906 15.3817 25.6362
478 1 Ar 35.8906 15.3817 30.7634
479 1 Ar 35.8906 15.3817 35.8906
480 1 Ar 35.8906 20.5089 0
481 1 Ar 35.8906 20.5089 5.12723
482 1 Ar 35.8906 20.5089 10.2545
483 1 Ar 35.8906 20.5089 15.3817
484 1 Ar 35.8906 20.5089 20.5089
485 1 Ar 35.8906 20.5089 25.6362
486 1 Ar 35.8906 20.5089 30.7634
487 1 Ar 35.8906 20.5089 35.8906
488 1 Ar 35.8906 25.6362 0
489 1 Ar 35.8906 25.6362 5.12723
490 1 Ar 35.8906 25.6362 10.2545
491 1 Ar 35.8906 25.6362 15.3817
492 1 Ar 35.8906 25.6362 20.5089
493 1 Ar 35.8906 25.6362 25.6362
494 1 Ar 35.8906 25.6362 30.7634
495 1 Ar 35.8906 25.6362 35.8906
496 1 Ar 35.8906 30.7634 0
497 1 Ar 35.8906 30.7634 5.12723
498 1 Ar 35.8906 30.7634 10.2545
499 1 Ar 35.8906 30.7634 15.3817
ITEM: TIMESTEP
19999
ITEM: NUMBER OF ATOMS
500
ITEM: BOX BOUNDS pp pp pp
0 46.1451
0 46.1451
0 46.1451
ITEM: ATOMS id type element xu yu zu
0 1 Ar 45.1964 16.6076 37.3894
1 1 Ar 21.5673 37.9721 32.0788
2 1 Ar 9.64926 44.721 14.4667
3 1 Ar 7.86724 14.0546 7.30079
4 1 Ar 7.4975 34.8252 11.7201
5 1 Ar 30.3378 43.9042 6.52168
6 1 Ar 34.8423 26.856 44.7772
7 1 Ar 46.0068 4.22645 24.5306
8 1 Ar 6.85465 5.71222 33.3054
9 1 Ar 17.8773 22.0904 41.9919
10 1 Ar 45.9837 3.90747 10.0809
11 1 Ar 44.2821 5.86767 17.5019
12 1 Ar 16.286 45.7466 27.6536
13 1 Ar 20.6111 25.1507 21.6897
14 1 Ar 4.77102 42.565 27.5527
15 1 Ar 36.3434 5.16331 30.3408
16 1 Ar 5.32516 13.167 2.17008
17 1 Ar 0.417988 44.8385 44.6538
18 1 Ar 6.98388 6.84598 14.1891
19 1 Ar 6.76271 18.4003 27.3002
20 1 Ar 16.9329 45.2511 44.3803
21 1 Ar 33.1149 39.8983 44.5146
22 1 Ar 0.648419 8.70725 29.4022
23 1 Ar 18.1214 24.6338 12.3045
24 1 Ar 40.7774 15.6232 1.4614
25 1 Ar 7.11853 18.3315 41.2627
26 1 Ar 10.2574 21.878 6.47765
27 1 Ar 1.54886 17.2033 16.9857
28 1 Ar 2.21415 15.7744 21.3643
29 1 Ar 7.5421 27.1594 2.49365
30 1 Ar 14.0021 45.5156 0.96807
31 1 Ar 8.89965 23.0224 35.2532
32 1 Ar 43.2854 13.2259 3.82267
33 1 Ar 1.55835 22.9085 0.954714
34 1 Ar 0.297944 18.9905 9.6556
35 1 Ar 0.903935 19.2752 14.1796
36 1 Ar 3.29502 25.7099 15.0881
37 1 Ar 7.18821 27.4479 23.2023
38 1 Ar 41.1263 23.5568 26.7601
39 1 Ar 10.7007 22.887 30.3164
40 1 Ar 26.9292 19.911 4.63705
41 1 Ar 8.16727 0.706267 9.16323
42 1 Ar 8.74746 34.9194 19.3899
43 1 Ar 5.45148 10.9869 35.7433
44 1 Ar 8.15285 18.5666 23.2634
45 1 Ar 5.60759 4.67867 25.136
46 1 Ar 35.5734 31.3099 33.3752
47 1 Ar 42.8312 18.9898 0.457958
48 1 Ar 32.4514 22.3727 16.8052
49 1 Ar 39.644 14.0755 32.6929
50 1 Ar 8.65366 28.5972 45.2805
51 1 Ar 23.4976 12.1249 24.3492
52 1 Ar 9.20724 29.5104 26.0766
53 1 Ar 36.6348 19.7353 29.3765
54 1 Ar 12.9324 0.413738 39.026
55 1 Ar 40.0674 40.5913 31.8092
56 1 Ar 45.0064 31.6501 7.68025
57 1 Ar 11.695 33.8407 6.95101
58 1 Ar 20.9585 40.8433 3.58939
59 1 Ar 35.6587 18.9172 3.33891
60 1 Ar 40.5215 33.3349 24.1834
61 1 Ar 41.5733 46.0683 22.9314
62 1 Ar 11.3247 26.1481 36.2562
63 1 Ar 43.8076 34.7226 9.12163
64 1 Ar 34.7213 39.1269 22.2542
65 1 Ar 2.38922 42.8999 39.8067
66 1 Ar 1.5097 13.1763 45.2666
67 1 Ar 8.47956 20.7099 19.2776
68 1 Ar 20.4728 11.0476 19.6134
69 1 Ar 42.1212 19.8294 26.4116
70 1 Ar 21.2321 33.2854 25.4202
71 1 Ar 1.88276 20.7058 44.1393
72 1 Ar 0.684684 1.44668 3.81541
73 1 Ar 8.37049 33.8583 4.55719
74 1 Ar 14.0724 22.075 21.2852
75 1 Ar 8.43741 4.80277 36.8275
76 1 Ar 22.1201 37.8641 38.0336
77 1 Ar 0.0633484 13.8258 27.4119
78 1 Ar 0.105042 19.372 27.1664
79 1 Ar 10.5687 15.1209 30.3711
80 1 Ar 29.1962 33.4732 44.0094
81 1 Ar 5.09098 4.38592 11.1259
82 1 Ar 3.0834 17.4984 11.1927
83 1 Ar 18.3106 20.27 0.85609
84 1 Ar 8.30164 9.8739 15.8056
85 1 Ar 10.7655 18.4601 28.7684
86 1 Ar 9.8195 8.93363 31.8492
87 1 Ar 1.95998 15.7513 41.4067
88 1 Ar 13.2942 15.4675 42.799
89 1 Ar 9.91188 23.9551 26.1244
90 1 Ar 11.3697 2.37172 8.1117
91 1 Ar 4.46819 18.8311 16.7506
92 1 Ar 17.7321 26.3161 20.4527
93 1 Ar 4.51567 5.96195 4.94533
94 1 Ar 10.6014 10.9289 24.3749
95 1 Ar 8.60142 18.282 31.8914
96 1 Ar 8.69345 19.6437 11.8524
97 1 Ar 17.8079 27.0852 8.56411
98 1 Ar 38.8315 31.8145 13.5061
99 1 Ar 5.57491 19.8834 13.6942
100 1 Ar 5.13176 25.1898 20.6679
101 1 Ar 17.9261 23.1528 36.3184
102 1 Ar 14.83 20.5401 32.7306
103 1 Ar 6.97959 27.8638 17.3904
104 1 Ar 18.736 42.0809 39.7988
105 1 Ar 42.0245 24.5855 2.98688
106 1 Ar 5.57168 22.5224 16.6858
107 1 Ar 6.34904 28.6224 13.7159
108 1 Ar 40.9427 21.2332 17.9689
109 1 Ar 31.0967 12.7293 43.1664
110 1 Ar 6.12476 20.8108 33.1893
111 1 Ar 34.1046 14.6613 3.52622
112 1 Ar 9.0042 34.4123 0.907089
113 1 Ar 36.7203 28.8619 3.18161
114 1 Ar 45.0323 23.4791 14.91
115 1 Ar 7.60143 25.2397 14.9348
116 1 Ar 3.57724 28.0406 19.1446
117 1 Ar 5.53663 36.1829 19.309
118 1 Ar 31.7841 45.3846 0.746179
119 1 Ar 4.86201 37.3538 33.1737
120 1 Ar 40.6864 43.0527 25.5034
121 1 Ar 32.6765 35.2454 11.0103
122 1 Ar 14.2823 0.090431 21.3809
123 1 Ar 12.617 35.127 19.4568
124 1 Ar 5.8935 31.1297 26.1278
125 1 Ar 36.519 11.2213 23.6824
126 1 Ar 36.8603 23.9469 44.1639
127 1 Ar 2.3397 38.942 1.90839
128 1 Ar 19.44 0.393547 42.3291
129 1 Ar 13.9278 3.3484 6.20311
130 1 Ar 22.2611 42.237 9.93639
131 1 Ar 0.208805 22.86 29.257
132 1 Ar 11.915 3.94427 24.1605
133 1 Ar 26.6841 15.9902 3.99691
134 1 Ar 16.7878 26.3084 41.3323
135 1 Ar 30.4661 15.7902 25.6614
136 1 Ar 7.09042 10.9091 5.57176
137 1 Ar 18.3962 35.2406 40.364
138 1 Ar 25.2482 25.1574 23.8948
139 1 Ar 9.45302 10.4024 10.9461
140 1 Ar 18.1063 41.3541 26.6886
141 1 Ar 9.53611 16.0565 45.3744
142 1 Ar 8.27788 7.00564 0.945691
143 1 Ar 4.9994 4.06024 37.3676
144 1 Ar 30.2668 15.3066 1.84746
145 1 Ar 39.2403 10.0165 39.6747
146 1 Ar 6.92466 25.7938 11.3571
147 1 Ar 13.3651 8.11235 14.1957
148 1 Ar 9.46148 6.85842 17.3235
149 1 Ar 6.87068 7.06725 19.65
150 1 Ar 8.64064 8.24436 35.9191
151 1 Ar 14.8082 35.8371 14.1091
152 1 Ar 2.88568 17.2744 0.583468
153 1 Ar 10.9088 11.7494 7.90648
154 1 Ar 45.7101 45.8444 41.4923
155 1 Ar 5.81065 13.6175 21.0531
156 1 Ar 6.95303 13.85 27.8816
157 1 Ar 13.2748 13.4513 26.1138
158 1 Ar 25.3907 7.38958 15.6067
159 1 Ar 26.6123 12.8755 22.4321
160 1 Ar 9.25739 23.1937 39.3277
161 1 Ar 19.462 5.57139 39.6366
162 1 Ar 9.86244 29.738 13.4756
163 1 Ar 25.5486 12.0198 10.3377
164 1 Ar 13.3262 14.4895 37.0264
165 1 Ar 13.3268 22.1767 28.4057
166 1 Ar 41.4922 39.1404 26.8278
167 1 Ar 7.62836 19.7913 36.5988
168 1 Ar 19.2094 13.0876 7.29713
169 1 Ar 13.1084 29.5856 9.39046
170 1 Ar 5.56359 23.2361 9.32542
171 1 Ar 15.1248 13.1972 5.8242
172 1 Ar 12.6841 28.5077 20.6393
173 1 Ar 22.9277 17.6553 2.82218
174 1 Ar 4.26797 21.2715 20.6841
175 1 Ar 0.939468 28.8893 2.05326
176 1 Ar 7.36444 45.6991 41.3878
177 1 Ar 10.2017 43.8203 0.325859
178 1 Ar 10.0089 24.8052 3.79013
179 1 Ar 10.2242 33.3977 13.8069
180 1 Ar 8.59461 31.2604 18.7935
181 1 Ar 15.2146 20.3718 16.2257
182 1 Ar 11.1141 33.2535 25.1552
183 1 Ar 30.0514 11.1553 7.9631
184 1 Ar 15.1565 23.6713 1.12384
185 1 Ar 25.5337 22.4765 1.96304
186 1 Ar 40.6319 26.6896 25.3856
187 1 Ar 19.0268 27.7014 12.4386
188 1 Ar 9.7844 39.9889 20.2484
189 1 Ar 27.5065 5.0195 29.5528
190 1 Ar 28.2446 0.508493 29.3502
191 1 Ar 30.512 4.3645 3.90007
192 1 Ar 10.9912 4.89452 45.9604
193 1 Ar 15.1408 44.2254 41.1618
194 1 Ar 21.4118 31.2308 6.50823
195 1 Ar 4.10436 17.7608 31.58
196 1 Ar 23.4092 5.42737 21.581
197 1 Ar 21.0105 44.1392 22.4501
198 1 Ar 7.67749 3.4663 19.1206
199 1 Ar 20.5544 2.56565 15.7994
200 1 Ar 13.0686 6.55256 5.26972
201 1 Ar 2.40702 26.6184 41.4397
202 1 Ar 17.0652 2.44308 12.4646
203 1 Ar 9.00676 45.205 22.1988
204 1 Ar 31.5036 23.3954 7.25128
205 1 Ar 11.978 7.05909 26.8015
206 1 Ar 11.0306 4.23771 34.7548
207 1 Ar 13.9834 8.80868 31.8455
208 1 Ar 18.5266 13.2297 45.2904
209 1 Ar 26.6414 46.1046 34.9339
210 1 Ar 17.928 5.05115 17.0877
211 1 Ar 22.4858 5.50323 0.809925
212 1 Ar 21.6794 14.06 21.9129
213 1 Ar 16.7157 12.3831 27.1448
214 1 Ar 19.4927 15.382 26.5526
215 1 Ar 16.8675 6.46519 33.7484
216 1 Ar 37.4383 41.6485 26.2072
217 1 Ar 27.5501 19.8806 39.8267
218 1 Ar 14.1562 9.75338 7.37858
219 1 Ar 15.3498 17.2747 12.9626
220 1 Ar 3.19426 35.1359 41.6873
221 1 Ar 5.41452 15.8723 23.299
222 1 Ar 6.34344 25.6935 42.6735
223 1 Ar 28.252 2.70013 26.2927
224 1 Ar 9.68596 15.1239 41.7696
225 1 Ar 17.8773 19.2904 4.54721
226 1 Ar 15.2988 18.7398 9.0337
227 1 Ar 11.863 21.4692 15.0047
228 1 Ar 32.4654 7.012 16.9272
229 1 Ar 6.12765 3.42413 45.3742
230 1 Ar 9.50604 5.74461 4.94648
231 1 Ar 15.5715 20.5628 36.9682
232 1 Ar 14.7493 16.6499 4.93445
233 1 Ar 13.4363 39.2224 26.0125
234 1 Ar 11.3318 24.9703 12.4238
235 1 Ar 4.14385 17.9062 43.5477
236 1 Ar 11.3478 24.4444 18.7309
237 1 Ar 35.2244 33.4118 17.3183
238 1 Ar 14.4509 28.9956 34.0319
239 1 Ar 15.0169 27.1137 38.5492
240 1 Ar 7.8478 23.9217 0.959909
241 1 Ar 0.519232 19.7009 35.5425
242 1 Ar 3.78531 39.2518 13.6415
243 1 Ar 25.1609 24.2782 11.4991
244 1 Ar 11.9794 30.9554 16.745
245 1 Ar 2.73092 2.0549 16.3936
246 1 Ar 17.2059 4.45706 8.37153
247 1 Ar 16.4903 25.8093 31.6858
248 1 Ar 17.1567 43.1601 30.2608
249 1 Ar 45.2792 37.3749 25.1283
250 1 Ar 19.486 14.7542 30.404
251 1 Ar 15.6902 6.57713 22.3392
252 1 Ar 20.1197 23.4213 2.83059
253 1 Ar 17.3381 46.1037 23.3029
254 1 Ar 26.884 13.5225 39.3389
255 1 Ar 4.77288 8.72121 2.13254
256 1 Ar 22.0003 1.65313 44.7164
257 1 Ar 25.0071 29.3289 3.15509
258 1 Ar 10.825 1.37628 16.7376
259 1 Ar 15.6381 21.5744 25.5069
260 1 Ar 7.98883 13.4701 14.9616
261 1 Ar 19.5534 3.03495 23.6115
262 1 Ar 24.512 36.2578 35.9967
263 1 Ar 20.1464 5.75307 35.2223
264 1 Ar 17.8582 0.616471 5.20567
265 1 Ar 23.4816 4.0519 4.74017
266 1 Ar 30.1099 30.3415 33.7265
267 1 Ar 26.1264 7.60001 7.35413
268 1 Ar 40.6775 7.92907 17.3416
269 1 Ar 15.9871 6.90969 26.9206
270 1 Ar 21.5818 4.79773 32.1021
271 1 Ar 26.2224 9.54788 40.34
272 1 Ar 25.8987 7.8602 11.5517
273 1 Ar 4.21554 29.5275 30.301
274 1 Ar 23.0027 16.1862 45.1233
275 1 Ar 19.3517 9.1883 15.8804
276 1 Ar 18.3713 14.1067 17.9985
277 1 Ar 31.8004 2.98196 18.2198
278 1 Ar 20.5124 7.58167 27.1789
279 1 Ar 18.7186 18.3204 29.1068
280 1 Ar 19.2911 26.927 15.6278
281 1 Ar 22.0804 20.0278 4.90468
282 1 Ar 23.1531 15.2468 37.1307
283 1 Ar 16.5805 17.7271 19.2909
284 1 Ar 20.5895 18.1247 12.6353
285 1 Ar 2.68107 26.5045 22.9975
286 1 Ar 25.3904 25.5606 19.7139
287 1 Ar 22.5877 12.9641 41.0923
288 1 Ar 22.3012 35.8954 18.3678
289 1 Ar 19.0976 18.8262 7.64941
290 1 Ar 20.6525 21.1865 10.8756
291 1 Ar 20.9797 21.3027 14.6376
292 1 Ar 18.6551 22.1532 19.7291
293 1 Ar 14.6187 33.0898 17.4196
294 1 Ar 40.0062 31.8512 9.68071
295 1 Ar 8.81724 41.478 23.4007
296 1 Ar 43.6718 19.8832 15.6254
297 1 Ar 19.7541 23.0341 7.32057
298 1 Ar 21.6677 24.7368 13.2971
299 1 Ar 25.1315 29.2168 12.1564
300 1 Ar 44.2952 40.9687 37.0393
301 1 Ar 19.3885 25.6876 24.9116
302 1 Ar 14.7641 15.0293 20.3911
303 1 Ar 21.6769 31.526 42.6953
304 1 Ar 13.4616 22.3928 5.38106
305 1 Ar 19.0115 32.1977 3.51504
306 1 Ar 22.2295 28.4184 9.28796
307 1 Ar 18.8924 31.7586 11.8679
308 1 Ar 19.6178 30.1729 18.0031
309 1 Ar 38.7995 38.6878 44.739
310 1 Ar 23.5204 26.6788 28.2192
311 1 Ar 24.1957 34.0666 30.3611
312 1 Ar 26.1937 16.9641 42.8206
313 1 Ar 10.3087 37.256 4.16708
314 1 Ar 17.9359 36.5183 12.4313
315 1 Ar 40.9903 44.63 6.17123
316 1 Ar 19.0121 36.475 25.9353
317 1 Ar 13.9437 3.32723 1.4028
318 1 Ar 17.6625 37.473 34.0466
319 1 Ar 18.6276 31.3885 30.3563
320 1 Ar 18.239 13.9799 11.5861
321 1 Ar 18.9152 41.4119 43.5962
322 1 Ar 41.5007 25.9594 31.3192
323 1 Ar 41.3363 17.4023 5.83701
324 1 Ar 33.7464 15.26 27.6544
325 1 Ar 14.0763 4.45586 28.975
326 1 Ar 10.9571 32.3463 10.0049
327 1 Ar 19.3399 29.5605 21.8601
328 1 Ar 0.493494 7.09599 7.50592
329 1 Ar 6.52696 15.4435 38.6917
330 1 Ar 31.3371 4.84318 14.607
331 1 Ar 11.2651 12.2095 16.0568
332 1 Ar 24.6857 8.98186 22.1188
333 1 Ar 12.894 12.0209 33.5926
334 1 Ar 20.9827 45.6132 25.9788
335 1 Ar 21.5097 6.64986 18.2947
336 1 Ar 35.2885 42.5924 35.5623
337 1 Ar 5.98708 7.63214 44.0798
338 1 Ar 31.0473 26.0389 25.6978
339 1 Ar 25.2799 28.038 40.29
340 1 Ar 20.0622 42.7477 15.2955
341 1 Ar 24.1212 3.65801 27.5769
342 1 Ar 19.0433 39.7319 30.049
343 1 Ar 6.75163 18.0613 0.92412
344 1 Ar 20.3417 36.277 8.77731
345 1 Ar 21.2772 3.94961 9.86933
346 1 Ar 7.78803 10.2734 26.1778
347 1 Ar 27.5004 4.14163 5.4037
348 1 Ar 26.5236 15.7642 26.2256
349 1 Ar 16.975 15.9869 32.5981
350 1 Ar 27.4652 16.6403 29.8649
351 1 Ar 42.6593 45.0513 43.3527
352 1 Ar 12.9162 34.1104 1.6406
353 1 Ar 27.3245 16.2139 9.65745
354 1 Ar 18.9835 17.6295 16.6052
355 1 Ar 16.0103 29.0969 17.9386
356 1 Ar 22.4239 21.0742 0.602386
357 1 Ar 15.4078 28.4202 12.7961
358 1 Ar 18.9218 27.3409 28.8069
359 1 Ar 3.84562 24.3022 44.8681
360 1 Ar 16.1264 13.4984 2.40741
361 1 Ar 9.77004 23.3952 43.7274
362 1 Ar 23.8218 19.7879 11.0461
363 1 Ar 26.4496 26.4255 14.6376
364 1 Ar 40.6706 15.3816 19.0986
365 1 Ar 17.8801 22.7725 30.018
366 1 Ar 26.9084 29.2247 30.6152
367 1 Ar 27.1972 25.5999 38.2032
368 1 Ar 16.5142 15.4727 39.7506
369 1 Ar 41.6669 19.9928 8.13179
370 1 Ar 22.6769 40.6338 16.7627
371 1 Ar 26.2766 29.8533 16.6423
372 1 Ar 30.4274 33.369 25.6793
373 1 Ar 37.9441 4.99449 14.3747
374 1 Ar 11.6951 22.6758 33.608
375 1 Ar 11.3791 36.6006 45.2737
376 1 Ar 33.2085 43.3084 25.005
377 1 Ar 39.8245 42.5768 3.4108
378 1 Ar 17.5471 41.671 1.56108
379 1 Ar 13.113 39.3413 0.31329
380 1 Ar 19.8003 6.74916 21.7154
381 1 Ar 20.1136 29.9503 26.0955
382 1 Ar 16.2039 30.043 27.1542
383 1 Ar 24.786 42.7038 31.1534
384 1 Ar 45.093 27.7809 41.6627
385 1 Ar 10.7676 18.0506 15.7898
386 1 Ar 17.898 34.2895 15.3321
387 1 Ar 24.9076 44.8752 9.93449
388 1 Ar 36.5659 6.51579 19.8009
389 1 Ar 31.9523 1.01521 26.0768
390 1 Ar 37.3276 0.113493 8.95961
391 1 Ar 36.1825 29.6849 29.904
392 1 Ar 38.4289 21.1411 42.4486
393 1 Ar 29.2643 5.68901 9.28875
394 1 Ar 27.8768 4.50421 14.161
395 1 Ar 36.2643 44.3288 4.06788
396 1 Ar 42.2055 10.1233 19.9739
397 1 Ar 17.664 23.8856 17.0169
398 1 Ar 16.1482 37.1137 1.10405
399 1 Ar 15.9356 10.1711 39.3938
400 1 Ar 36.1753 12.4656 0.176391
401 1 Ar 26.5473 11.5141 6.49004
402 1 Ar 25.8608 4.98108 1.761
403 1 Ar 22.1909 44.7112 1.15125
404 1 Ar 32.5536 12.2352 25.7005
405 1 Ar 20.1525 26.3565 39.3555
406 1 Ar 36.8757 15.607 24.8751
407 1 Ar 32.1571 14.3545 36.8499
408 1 Ar 31.1945 19.2046 4.65525
409 1 Ar 29.7212 11.9991 3.21877
410 1 Ar 29.6858 15.2032 6.78097
411 1 Ar 36.8854 14.0328 21.5753
412 1 Ar 43.0257 33.6328 13.0945
413 1 Ar 41.8791 21.0196 31.2783
414 1 Ar 32.7014 4.662 21.7312
415 1 Ar 16.2771 5.29192 37.4785
416 1 Ar 22.362 7.13735 4.29007
417 1 Ar 23.6676 10.5982 4.07982
418 1 Ar 45.0734 15.9511 9.73507
419 1 Ar 31.7877 19.9682 29.4164
420 1 Ar 16.7192 32.1619 8.97518
421 1 Ar 19.9149 16.3222 35.9187
422 1 Ar 33.7633 23.6482 39.104
423 1 Ar 33.0418 30.3548 28.8254
424 1 Ar 0.345199 12.7588 13.7524
425 1 Ar 34.932 24.3076 2.3254
426 1 Ar 44.8109 14.4112 19.8208
427 1 Ar 29.6537 29.4503 15.5503
428 1 Ar 31.4529 26.5818 18.8149
429 1 Ar 22.4839 18.8004 18.38
430 1 Ar 25.7037 20.9822 26.0309
431 1 Ar 38.2262 10.039 12.1566
432 1 Ar 32.7221 36.72 6.08415
433 1 Ar 24.0101 4.26564 12.8374
434 1 Ar 24.3945 25.3063 8.12402
435 1 Ar 37.5799 1.00221 24.7285
436 1 Ar 28.8279 30.8017 18.9821
437 1 Ar 23.1546 31.4023 19.9775
438 1 Ar 3.84578 19.4802 37.0643
439 1 Ar 33.1092 23.928 43.1949
440 1 Ar 36.2427 36.373 3.56586
441 1 Ar 4.57091 32.1814 15.8046
442 1 Ar 36.3979 42.8202 17.2055
443 1 Ar 5.63658 42.8084 43.7504
444 1 Ar 30.2895 1.66835 21.5984