ITEM: TIMESTEP
-1
ITEM: NUMBER OF ATOMS
500
ITEM: BOX BOUNDS pp pp pp
0 36.6254
0 36.6254
0 36.6254
ITEM: ATOMS id type element xu yu zu
0 1 Ar 0 0 0
1 1 Ar 0 0 4.06949
2 1 Ar 0 0 8.13898
3 1 Ar 0 0 12.2085
4 1 Ar 0 0 16.278
5 1 Ar 0 0 20.3474
6 1 Ar 0 0 24.4169
7 1 Ar 0 0 28.4864
8 1 Ar 0 4.06949 0
9 1 Ar 0 4.06949 4.06949
10 1 Ar 0 4.06949 8.13898
11 1 Ar 0 4.06949 12.2085
12 1 Ar 0 4.06949 16.278
13 1 Ar 0 4.06949 20.3474
14 1 Ar 0 4.06949 24.4169
15 1 Ar 0 4.06949 28.4864
16 1 Ar 0 8.13898 0
17 1 Ar 0 8.13898 4.06949
18 1 Ar 0 8.13898 8.13898
19 1 Ar 0 8.13898 12.2085
20 1 Ar 0 8.13898 16.278
21 1 Ar 0 8.13898 20.3474
22 1 Ar 0 8.13898 24.4169
23 1 Ar 0 8.13898 28.4864
24 1 Ar 0 12.2085 0
25 1 Ar 0 12.2085 4.06949
26 1 Ar 0 12.2085 8.13898
27 1 Ar 0 12.2085 12.2085
28 1 Ar 0 12.2085 16.278
29 1 Ar 0 12.2085 20.3474
30 1 Ar 0 12.2085 24.4169
31 1 Ar 0 12.2085 28.4864
32 1 Ar 0 16.278 0
33 1 Ar 0 16.278 4.06949
34 1 Ar 0 16.278 8.13898
35 1 Ar 0 16.278 12.2085
36 1 Ar 0 16.278 16.278
37 1 Ar 0 16.278 20.3474
38 1 Ar 0 16.278 24.4169
39 1 Ar 0 16.278 28.4864
40 1 Ar 0 20.3474 0
41 1 Ar 0 20.3474 4.06949
42 1 Ar 0 20.3474 8.13898
43 1 Ar 0 20.3474 12.2085
44 1 Ar 0 20.3474 16.278
45 1 Ar 0 20.3474 20.3474
46 1 Ar 0 20.3474 24.4169
47 1 Ar 0 20.3474 28.4864
48 1 Ar 0 24.4169 0
49 1 Ar 0 24.4169 4.06949
50 1 Ar 0 24.4169 8.13898
51 1 Ar 0 24.4169 12.2085
52 1 Ar 0 24.4169 16.278
53 1 Ar 0 24.4169 20.3474
54 1 Ar 0 24.4169 24.4169
55 1 Ar 0 24.4169 28.4864
56 1 Ar 0 28.4864 0
57 1 Ar 0 28.4864 4.06949
58 1 Ar 0 28.4864 8.13898
59 1 Ar 0 28.4864 12.2085
60 1 Ar 0 28.4864 16.278
61 1 Ar 0 28.4864 20.3474
62 1 Ar 0 28.4864 24.4169
63 1 Ar 0 28.4864 28.4864
64 1 Ar 4.06949 0 0
65 1 Ar 4.06949 0 4.06949
66 1 Ar 4.06949 0 8.13898
67 1 Ar 4.06949 0 12.2085
68 1 Ar 4.06949 0 16.278
69 1 Ar 4.06949 0 20.3474
70 1 Ar 4.06949 0 24.4169
71 1 Ar 4.06949 0 28.4864
72 1 Ar 4.06949 4.06949 0
73 1 Ar 4.06949 4.06949 4.06949
74 1 Ar 4.06949 4.06949 8.13898
75 1 Ar 4.06949 4.06949 12.2085
76 1 Ar 4.06949 4.06949 16.278
77 1 Ar 4.06949 4.06949 20.3474
78 1 Ar 4.06949 4.06949 24.4169
79 1 Ar 4.06949 4.06949 28.4864
80 1 Ar 4.06949 8.13898 0
81 1 Ar 4.06949 8.13898 4.06949
82 1 Ar 4.06949 8.13898 8.13898
83 1 Ar 4.06949 8.13898 12.2085
84 1 Ar 4.06949 8.13898 16.278
85 1 Ar 4.06949 8.13898 20.3474
86 1 Ar 4.06949 8.13898 24.4169
87 1 Ar 4.06949 8.13898 28.4864
88 1 Ar 4.06949 12.2085 0
89 1 Ar 4.06949 12.2085 4.06949
90 1 Ar 4.06949 12.2085 8.13898
91 1 Ar 4.06949 12.2085 12.2085
92 1 Ar 4.06949 12.2085 16.278
93 1 Ar 4.06949 12.2085 20.3474
94 1 Ar 4.06949 12.2085 24.4169
95 1 Ar 4.06949 12.2085 28.4864
96 1 Ar 4.06949 16.278 0
97 1 Ar 4.06949 16.278 4.06949
98 1 Ar 4.06949 16.278 8.13898
99 1 Ar 4.06949 16.278 12.2085
100 1 Ar 4.06949 16.278 16.278
101 1 Ar 4.06949 16.278 20.3474
102 1 Ar 4.06949 16.278 24.4169
103 1 Ar 4.06949 16.278 28.4864
104 1 Ar 4.06949 20.3474 0
105 1 Ar 4.06949 20.3474 4.06949
106 1 Ar 4.06949 20.3474 8.13898
107 1 Ar 4.06949 20.3474 12.2085
108 1 Ar 4.06949 20.3474 16.278
109 1 Ar 4.06949 20.3474 20.3474
110 1 Ar 4.06949 20.3474 24.4169
111 1 Ar 4.06949 20.3474 28.4864
112 1 Ar 4.06949 24.4169 0
113 1 Ar 4.06949 24.4169 4.06949
114 1 Ar 4.06949 24.4169 8.13898
115 1 Ar 4.06949 24.4169 12.2085
116 1 Ar 4.06949 24.4169 16.278
117 1 Ar 4.06949 24.4169 20.3474
118 1 Ar 4.06949 24.4169 24.4169
119 1 Ar 4.06949 24.4169 28.4864
120 1 Ar 4.06949 28.4864 0
121 1 Ar 4.06949 28.4864 4.06949
122 1 Ar 4.06949 28.4864 8.13898
123 1 Ar 4.06949 28.4864 12.2085
124 1 Ar 4.06949 28.4864 16.278
125 1 Ar 4.06949 28.4864 20.3474
126 1 Ar 4.06949 28.4864 24.4169
127 1 Ar 4.06949 28.4864 28.4864
128 1 Ar 8.13898 0 0
129 1 Ar 8.13898 0 4.06949
130 1 Ar 8.13898 0 8.13898
131 1 Ar 8.13898 0 12.2085
132 1 Ar 8.13898 0 16.278
133 1 Ar 8.13898 0 20.3474
134 1 Ar 8.13898 0 24.4169
135 1 Ar 8.13898 0 28.4864
136 1 Ar 8.13898 4.06949 0
137 1 Ar 8.13898 4.06949 4.06949
138 1 Ar 8.13898 4.06949 8.13898
139 1 Ar 8.13898 4.06949 12.2085
140 1 Ar 8.13898 4.06949 16.278
141 1 Ar 8.13898 4.06949 20.3474
142 1 Ar 8.13898 4.06949 24.4169
143 1 Ar 8.13898 4.06949 28.4864
144 1 Ar 8.13898 8.13898 0
145 1 Ar 8.13898 8.13898 4.06949
146 1 Ar 8.13898 8.13898 8.13898
147 1 Ar 8.13898 8.13898 12.2085
148 1 Ar 8.13898 8.13898 16.278
149 1 Ar 8.13898 8.13898 20.3474
150 1 Ar 8.13898 8.13898 24.4169
151 1 Ar 8.13898 8.13898 28.4864
152 1 Ar 8.13898 12.2085 0
153 1 Ar 8.13898 12.2085 4.06949
154 1 Ar 8.13898 12.2085 8.13898
155 1 Ar 8.13898 12.2085 12.2085
156 1 Ar 8.13898 12.2085 16.278
157 1 Ar 8.13898 12.2085 20.3474
158 1 Ar 8.13898 12.2085 24.4169
159 1 Ar 8.13898 12.2085 28.4864
160 1 Ar 8.13898 16.278 0
161 1 Ar 8.13898 16.278 4.06949
162 1 Ar 8.13898 16.278 8.13898
163 1 Ar 8.13898 16.278 12.2085
164 1 Ar 8.13898 16.278 16.278
165 1 Ar 8.13898 16.278 20.3474
166 1 Ar 8.13898 16.278 24.4169
167 1 Ar 8.13898 16.278 28.4864
168 1 Ar 8.13898 20.3474 0
169 1 Ar 8.13898 20.3474 4.06949
170 1 Ar 8.13898 20.3474 8.13898
171 1 Ar 8.13898 20.3474 12.2085
172 1 Ar 8.13898 20.3474 16.278
173 1 Ar 8.13898 20.3474 20.3474
174 1 Ar 8.13898 20.3474 24.4169
175 1 Ar 8.13898 20.3474 28.4864
176 1 Ar 8.13898 24.4169 0
177 1 Ar 8.13898 24.4169 4.06949
178 1 Ar 8.13898 24.4169 8.13898
179 1 Ar 8.13898 24.4169 12.2085
180 1 Ar 8.13898 24.4169 16.278
181 1 Ar 8.13898 24.4169 20.3474
182 1 Ar 8.13898 24.4169 24.4169
183 1 Ar 8.13898 24.4169 28.4864
184 1 Ar 8.13898 28.4864 0
185 1 Ar 8.13898 28.4864 4.06949
186 1 Ar 8.13898 28.4864 8.13898
187 1 Ar 8.13898 28.4864 12.2085
188 1 Ar 8.13898 28.4864 16.278
189 1 Ar 8.13898 28.4864 20.3474
190 1 Ar 8.13898 28.4864 24.4169
191 1 Ar 8.13898 28.4864 28.4864
192 1 Ar 12.2085 0 0
193 1 Ar 12.2085 0 4.06949
194 1 Ar 12.2085 0 8.13898
195 1 Ar 12.2085 0 12.2085
196 1 Ar 12.2085 0 16.278
197 1 Ar 12.2085 0 20.3474
198 1 Ar 12.2085 0 24.4169
199 1 Ar 12.2085 0 28.4864
200 1 Ar 12.2085 4.06949 0
201 1 Ar 12.2085 4.06949 4.06949
202 1 Ar 12.2085 4.06949 8.13898
203 1 Ar 12.2085 4.06949 12.2085
204 1 Ar 12.2085 4.06949 16.278
205 1 Ar 12.2085 4.06949 20.3474
206 1 Ar 12.2085 4.06949 24.4169
207 1 Ar 12.2085 4.06949 28.4864
208 1 Ar 12.2085 8.13898 0
209 1 Ar 12.2085 8.13898 4.06949
210 1 Ar 12.2085 8.13898 8.13898
211 1 Ar 12.2085 8.13898 12.2085
212 1 Ar 12.2085 8.13898 16.278
213 1 Ar 12.2085 8.13898 20.3474
214 1 Ar 12.2085 8.13898 24.4169
215 1 Ar 12.2085 8.13898 28.4864
216 1 Ar 12.2085 12.2085 0
217 1 Ar 12.2085 12.2085 4.06949
218 1 Ar 12.2085 12.2085 8.13898
219 1 Ar 12.2085 12.2085 12.2085
220 1 Ar 12.2085 12.2085 16.278
221 1 Ar 12.2085 12.2085 20.3474
222 1 Ar 12.2085 12.2085 24.4169
223 1 Ar 12.2085 12.2085 28.4864
224 1 Ar 12.2085 16.278 0
225 1 Ar 12.2085 16.278 4.06949
226 1 Ar 12.2085 16.278 8.13898
227 1 Ar 12.2085 16.278 12.2085
228 1 Ar 12.2085 16.278 16.278
229 1 Ar 12.2085 16.278 20.3474
230 1 Ar 12.2085 16.278 24.4169
231 1 Ar 12.2085 16.278 28.4864
232 1 Ar 12.2085 20.3474 0
233 1 Ar 12.2085 20.3474 4.06949
234 1 Ar 12.2085 20.3474 8.13898
235 1 Ar 12.2085 20.3474 12.2085
236 1 Ar 12.2085 20.3474 16.278
237 1 Ar 12.2085 20.3474 20.3474
238 1 Ar 12.2085 20.3474 24.4169
239 1 Ar 12.2085 20.3474 28.4864
240 1 Ar 12.2085 24.4169 0
241 1 Ar 12.2085 24.4169 4.06949
242 1 Ar 12.2085 24.4169 8.13898
243 1 Ar 12.2085 24.4169 12.2085
244 1 Ar 12.2085 24.4169 16.278
245 1 Ar 12.2085 24.4169 20.3474
246 1 Ar 12.2085 24.4169 24.4169
247 1 Ar 12.2085 24.4169 28.4864
248 1 Ar 12.2085 28.4864 0
249 1 Ar 12.2085 28.4864 4.06949
250 1 Ar 12.2085 28.4864 8.13898
251 1 Ar 12.2085 28.4864 12.2085
252 1 Ar 12.2085 28.4864 16.278
253 1 Ar 12.2085 28.4864 20.3474
254 1 Ar 12.2085 28.4864 24.4169
255 1 Ar 12.2085 28.4864 28.4864
256 1 Ar 16.278 0 0
257 1 Ar 16.278 0 4.06949
258 1 Ar 16.278 0 8.13898
259 1 Ar 16.278 0 12.2085
260 1 Ar 16.278 0 16.278
261 1 Ar 16.278 0 20.3474
262 1 Ar 16.278 0 24.4169
263 1 Ar 16.278 0 28.4864
264 1 Ar 16.278 4.06949 0
265 1 Ar 16.278 4.06949 4.06949
266 1 Ar 16.278 4.06949 8.13898
267 1 Ar 16.278 4.06949 12.2085
268 1 Ar 16.278 4.06949 16.278
269 1 Ar 16.278 4.06949 20.3474
270 1 Ar 16.278 4.06949 24.4169
271 1 Ar 16.278 4.06949 28.4864
272 1 Ar 16.278 8.13898 0
273 1 Ar 16.278 8.13898 4.06949
274 1 Ar 16.278 8.13898 8.13898
275 1 Ar 16.278 8.13898 12.2085
276 1 Ar 16.278 8.13898 16.278
277 1 Ar 16.278 8.13898 20.3474
278 1 Ar 16.278 8.13898 24.4169
279 1 Ar 16.278 8.13898 28.4864
280 1 Ar 16.278 12.2085 0
281 1 Ar 16.278 12.2085 4.06949
282 1 Ar 16.278 12.2085 8.13898
283 1 Ar 16.278 12.2085 12.2085
284 1 Ar 16.278 12.2085 16.278
285 1 Ar 16.278 12.2085 20.3474
286 1 Ar 16.278 12.2085 24.4169
287 1 Ar 16.278 12.2085 28.4864
288 1 Ar 16.278 16.278 0
289 1 Ar 16.278 16.278 4.06949
290 1 Ar 16.278 16.278 8.13898
291 1 Ar 16.278 16.278 12.2085
292 1 Ar 16.278 16.278 16.278
293 1 Ar 16.278 16.278 20.3474
294 1 Ar 16.278 16.278 24.4169
295 1 Ar 16.278 16.278 28.4864
296 1 Ar 16.278 20.3474 0
297 1 Ar 16.278 20.3474 4.06949
298 1 Ar 16.278 20.3474 8.13898
299 1 Ar 16.278 20.3474 12.2085
300 1 Ar 16.278 20.3474 16.278
301 1 Ar 16.278 20.3474 20.3474
302 1 Ar 16.278 20.3474 24.4169
303 1 Ar 16.278 20.3474 28.4864
304 1 Ar 16.278 24.4169 0
305 1 Ar 16.278 24.4169 4.06949
306 1 Ar 16.278 24.4169 8.13898
307 1 Ar 16.278 24.4169 12.2085
308 1 Ar 16.278 24.4169 16.278
309 1 Ar 16.278 24.4169 20.3474
310 1 Ar 16.278 24.4169 24.4169
311 1 Ar 16.278 24.4169 28.4864
312 1 Ar 16.278 28.4864 0
313 1 Ar 16.278 28.4864 4.06949
314 1 Ar 16.278 28.4864 8.13898
315 1 Ar 16.278 28.4864 12.2085
316 1 Ar 16.278 28.4864 16.278
317 1 Ar 16.278 28.4864 20.3474
318 1 Ar 16.278 28.4864 24.4169
319 1 Ar 16.278 28.4864 28.4864
320 1 Ar 20.3474 0 0
321 1 Ar 20.3474 0 4.06949
322 1 Ar 20.3474 0 8.13898
323 1 Ar 20.3474 0 12.2085
324 1 Ar 20.3474 0 16.278
325 1 Ar 20.3474 0 20.3474
326 1 Ar 20.3474 0 24.4169
327 1 Ar 20.3474 0 28.4864
328 1 Ar 20.3474 4.06949 0
329 1 Ar 20.3474 4.06949 4.06949
330 1 Ar 20.3474 4.06949 8.13898
331 1 Ar 20.3474 4.06949 12.2085
332 1 Ar 20.3474 4.06949 16.278
333 1 Ar 20.3474 4.06949 20.3474
334 1 Ar 20.3474 4.06949 24.4169
335 1 Ar 20.3474 4.06949 28.4864
336 1 Ar 20.3474 8.13898 0
337 1 Ar 20.3474 8.13898 4.06949
338 1 Ar 20.3474 8.13898 8.13898
339 1 Ar 20.3474 8.13898 12.2085
340 1 Ar 20.3474 8.13898 16.278
341 1 Ar 20.3474 8.13898 20.3474
342 1 Ar 20.3474 8.13898 24.4169
343 1 Ar 20.3474 8.13898 28.4864
344 1 Ar 20.3474 12.2085 0
345 1 Ar 20.3474 12.2085 4.06949
346 1 Ar 20.3474 12.2085 8.13898
347 1 Ar 20.3474 12.2085 12.2085
348 1 Ar 20.3474 12.2085 16.278
349 1 Ar 20.3474 12.2085 20.3474
350 1 Ar 20.3474 12.2085 24.4169
351 1 Ar 20.3474 12.2085 28.4864
352 1 Ar 20.3474 16.278 0
353 1 Ar 20.3474 16.278 4.06949
354 1 Ar 20.3474 16.278 8.13898
355 1 Ar 20.3474 16.278 12.2085
356 1 Ar 20.3474 16.278 16.278
357 1 Ar 20.3474 16.278 20.3474
358 1 Ar 20.3474 16.278 24.4169
359 1 Ar 20.3474 16.278 28.4864
360 1 Ar 20.3474 20.3474 0
361 1 Ar 20.3474 20.3474 4.06949
362 1 Ar 20.3474 20.3474 8.13898
363 1 Ar 20.3474 20.3474 12.2085
364 1 Ar 20.3474 20.3474 16.278
365 1 Ar 20.3474 20.3474 20.3474
366 1 Ar 20.3474 20.3474 24.4169
367 1 Ar 20.3474 20.3474 28.4864
368 1 Ar 20.3474 24.4169 0
369 1 Ar 20.3474 24.4169 4.06949
370 1 Ar 20.3474 24.4169 8.13898
371 1 Ar 20.3474 24.4169 12.2085
372 1 Ar 20.3474 24.4169 16.278
373 1 Ar 20.3474 24.4169 20.3474
374 1 Ar 20.3474 24.4169 24.4169
375 1 Ar 20.3474 24.4169 28.4864
376 1 Ar 20.3474 28.4864 0
377 1 Ar 20.3474 28.4864 4.06949
378 1 Ar 20.3474 28.4864 8.13898
379 1 Ar 20.3474 28.4864 12.2085
380 1 Ar 20.3474 28.4864 16.278
381 1 Ar 20.3474 28.4864 20.3474
382 1 Ar 20.3474 28.4864 24.4169
383 1 Ar 20.3474 28.4864 28.4864
384 1 Ar 24.4169 0 0
385 1 Ar 24.4169 0 4.06949
386 1 Ar 24.4169 0 8.13898
387 1 Ar 24.4169 0 12.2085
388 1 Ar 24.4169 0 16.278
389 1 Ar 24.4169 0 20.3474
390 1 Ar 24.4169 0 24.4169
391 1 Ar 24.4169 0 28.4864
392 1 Ar 24.4169 4.06949 0
393 1 Ar 24.4169 4.06949 4.06949
394 1 Ar 24.4169 4.06949 8.13898
395 1 Ar 24.4169 4.06949 12.2085
396 1 Ar 24.4169 4.06949 16.278
397 1 Ar 24.4169 4.06949 20.3474
398 1 Ar 24.4169 4.06949 24.4169
399 1 Ar 24.4169 4.06949 28.4864
400 1 Ar 24.4169 8.13898 0
401 1 Ar 24.4169 8.13898 4.06949
402 1 Ar 24.4169 8.13898 8.13898
403 1 Ar 24.4169 8.13898 12.2085
404 1 Ar 24.4169 8.13898 16.278
405 1 Ar 24.4169 8.13898 20.3474
406 1 Ar 24.4169 8.13898 24.4169
407 1 Ar 24.4169 8.13898 28.4864
408 1 Ar 24.4169 12.2085 0
409 1 Ar 24.4169 12.2085 4.06949
410 1 Ar 24.4169 12.2085 8.13898
411 1 Ar 24.4169 12.2085 12.2085
412 1 Ar 24.4169 12.2085 16.278
413 1 Ar 24.4169 12.2085 20.3474
414 1 Ar 24.4169 12.2085 24.4169
415 1 Ar 24.4169 12.2085 28.4864
416 1 Ar 24.4169 16.278 0
417 1 Ar 24.4169 16.278 4.06949
418 1 Ar 24.4169 16.278 8.13898
419 1 Ar 24.4169 16.278 12.2085
420 1 Ar 24.4169 16.278 16.278
421 1 Ar 24.4169 16.278 20.3474
422 1 Ar 24.4169 16.278 24.4169
423 1 Ar 24.4169 16.278 28.4864
424 1 Ar 24.4169 20.3474 0
425 1 Ar 24.4169 20.3474 4.06949
426 1 Ar 24.4169 20.3474 8.13898
427 1 Ar 24.4169 20.3474 12.2085
428 1 Ar 24.4169 20.3474 16.278
429 1 Ar 24.4169 20.3474 20.3474
430 1 Ar 24.4169 20.3474 24.4169
431 1 Ar 24.4169 20.3474 28.4864
432 1 Ar 24.4169 24.4169 0
433 1 Ar 24.4169 24.4169 4.06949
434 1 Ar 24.4169 24.4169 8.13898
435 1 Ar 24.4169 24.4169 12.2085
436 1 Ar 24.4169 24.4169 16.278
437 1 Ar 24.4169 24.4169 20.3474
438 1 Ar 24.4169 24.4169 24.4169
439 1 Ar 24.4169 24.4169 28.4864
440 1 Ar 24.4169 28.4864 0
441 1 Ar 24.4169 28.4864 4.06949
442 1 Ar 24.4169 28.4864 8.13898
443 1 Ar 24.4169 28.4864 12.2085
444 1 Ar 24.4169 28.4864 16.278
445 1 Ar 24.4169 28.4864 20.3474
446 1 Ar 24.4169 28.4864 24.4169
447 1 Ar 24.4169 28.4864 28.4864
448 1 Ar 28.4864 0 0
449 1 Ar 28.4864 0 4.06949
450 1 Ar 28.4864 0 8.13898
451 1 Ar 28.4864 0 12.2085
452 1 Ar 28.4864 0 16.278
453 1 Ar 28.4864 0 20.3474
454 1 Ar 28.4864 0 24.4169
455 1 Ar 28.4864 0 28.4864
456 1 Ar 28.4864 4.06949 0
457 1 Ar 28.4864 4.06949 4.06949
458 1 Ar 28.4864 4.06949 8.13898
459 1 Ar 28.4864 4.06949 12.2085
460 1 Ar 28.4864 4.06949 16.278
461 1 Ar 28.4864 4.06949 20.3474
462 1 Ar 28.4864 4.06949 24.4169
463 1 Ar 28.4864 4.06949 28.4864
464 1 Ar 28.4864 8.13898 0
465 1 Ar 28.4864 8.13898 4.06949
466 1 Ar 28.4864 8.13898 8.13898
467 1 Ar 28.4864 8.13898 12.2085
468 1 Ar 28.4864 8.13898 16.278
469 1 Ar 28.4864 8.13898 20.3474
470 1 Ar 28.4864 8.13898 24.4169
471 1 Ar 28.4864 8.13898 28.4864
472 1 Ar 28.4864 12.2085 0
473 1 Ar 28.4864 12.2085 4.06949
474 1 Ar 28.4864 12.2085 8.13898
475 1 Ar 28.4864 12.2085 12.2085
476 1 Ar 28.4864 12.2085 16.278
477 1 Ar 28.4864 12.2085 20.3474
478 1 Ar 28.4864 12.2085 24.4169
479 1 Ar 28.4864 12.2085 28.4864
480 1 Ar 28.4864 16.278 0
481 1 Ar 28.4864 16.278 4.06949
482 1 Ar 28.4864 16.278 8.13898
483 1 Ar 28.4864 16.278 12.2085
484 1 Ar 28.4864 16.278 16.278
485 1 Ar 28.4864 16.278 20.3474
486 1 Ar 28.4864 16.278 24.4169
487 1 Ar 28.4864 16.278 28.4864
488 1 Ar 28.4864 20.3474 0
489 1 Ar 28.4864 20.3474 4.06949
490 1 Ar 28.4864 20.3474 8.13898
491 1 Ar 28.4864 20.3474 12.2085
492 1 Ar 28.4864 20.3474 16.278
493 1 Ar 28.4864 20.3474 20.3474
494 1 Ar 28.4864 20.3474 24.4169
495 1 Ar 28.4864 20.3474 28.4864
496 1 Ar 28.4864 24.4169 0
497 1 Ar 28.4864 24.4169 4.06949
498 1 Ar 28.4864 24.4169 8.13898
499 1 Ar 28.4864 24.4169 12.2085
ITEM: TIMESTEP
19999
ITEM: NUMBER OF ATOMS
500
ITEM: BOX BOUNDS pp pp pp
0 36.6254
0 36.6254
0 36.6254
ITEM: ATOMS id type element xu yu zu
0 1 Ar 1.63664 35.0049 36.0863
1 1 Ar 35.5128 2.83471 3.4634
2 1 Ar 35.2942 4.20194 7.22506
3 1 Ar 31.6886 35.6312 10.9414
4 1 Ar 2.70567 0.282002 17.6327
5 1 Ar 31.0114 5.50456 14.4046
6 1 Ar 1.7733 35.7314 25.3804
7 1 Ar 0.239385 0.293481 28.7517
8 1 Ar 1.6715 6.31265 35.83
9 1 Ar 34.0404 7.22468 0.0637327
10 1 Ar 4.03627 1.56621 11.1023
11 1 Ar 0.754801 5.28551 13.7158
12 1 Ar 0.950192 2.952 16.5874
13 1 Ar 31.8349 12.2056 21.7804
14 1 Ar 0.801849 4.23211 21.9417
15 1 Ar 35.3063 4.76995 29.4476
16 1 Ar 0.0628082 9.58607 35.3306
17 1 Ar 0.843309 9.92119 3.49223
18 1 Ar 1.80305 6.23974 7.52461
19 1 Ar 0.048251 8.42364 12.265
20 1 Ar 1.28289 9.07323 17.9688
21 1 Ar 34.0254 7.29792 17.3464
22 1 Ar 0.523483 8.54244 23.2686
23 1 Ar 2.51398 3.40971 26.679
24 1 Ar 28.2927 11.7144 34.3923
25 1 Ar 36.4958 14.0943 1.73499
26 1 Ar 2.25376 13.5139 9.57587
27 1 Ar 33.3964 16.7523 16.5311
28 1 Ar 31.796 11.2107 17.8011
29 1 Ar 36.0946 11.1632 20.1942
30 1 Ar 1.52889 11.607 24.9405
31 1 Ar 32.2631 7.08351 29.8627
32 1 Ar 35.28 19.2044 1.17834
33 1 Ar 35.7862 16.7607 3.91045
34 1 Ar 0.0373077 15.2918 7.42746
35 1 Ar 35.4485 14.2223 11.785
36 1 Ar 1.00698 16.3973 16.3606
37 1 Ar 1.23343 15.8527 21.7873
38 1 Ar 34.2691 18.0161 23.4962
39 1 Ar 0.97291 17.6937 28.4136
40 1 Ar 29.967 24.6271 5.11914
41 1 Ar 1.20053 21.0635 2.91949
42 1 Ar 36.0125 17.6763 10.0194
43 1 Ar 31.946 15.8478 10.4734
44 1 Ar 35.1421 23.309 17.3169
45 1 Ar 34.9236 28.0335 23.6423
46 1 Ar 0.185018 21.3782 23.8862
47 1 Ar 34.8628 21.4976 30.2528
48 1 Ar 2.33125 28.0304 0.137971
49 1 Ar 1.65536 25.4803 3.02473
50 1 Ar 0.925063 23.7835 9.12896
51 1 Ar 0.779447 22.5654 14.6149
52 1 Ar 2.07504 25.8634 17.6834
53 1 Ar 0.1885 25.8408 22.1011
54 1 Ar 32.0717 24.8427 22.9459
55 1 Ar 36.0993 24.7729 26.9526
56 1 Ar 29.9469 27.808 32.2685
57 1 Ar 3.04308 29.9534 4.07718
58 1 Ar 0.318698 26.8373 5.51449
59 1 Ar 35.8734 28.3653 10.2547
60 1 Ar 33.3288 28.6274 18.6783
61 1 Ar 0.151982 29.6718 20.3278
62 1 Ar 5.18679 34.8106 31.066
63 1 Ar 35.644 23.0539 33.824
64 1 Ar 3.03125 1.72473 34.104
65 1 Ar 6.79922 0.477653 35.2176
66 1 Ar 4.94084 0.309422 7.8494
67 1 Ar 2.28598 33.0345 16.1017
68 1 Ar 5.8023 2.33413 14.727
69 1 Ar 35.8835 35.8635 17.9666
70 1 Ar 4.07411 1.08103 21.8885
71 1 Ar 5.39392 1.41573 28.7166
72 1 Ar 2.3353 2.25919 1.39708
73 1 Ar 3.54671 4.46731 5.15631
74 1 Ar 4.5005 5.42078 9.98627
75 1 Ar 5.01881 6.13712 13.9697
76 1 Ar 3.82706 4.36001 18.1428
77 1 Ar 4.49295 4.76977 21.8053
78 1 Ar 5.52025 3.33325 25.2652
79 1 Ar 4.33742 5.29348 28.7378
80 1 Ar 5.91033 7.5455 35.3084
81 1 Ar 3.9803 7.48452 3.4433
82 1 Ar 3.9129 8.72923 6.8878
83 1 Ar 3.46645 8.75345 11.6587
84 1 Ar 5.10291 7.77812 17.7084
85 1 Ar 4.81228 9.73813 21.1085
86 1 Ar 4.35821 8.0019 24.5287
87 1 Ar 5.23555 9.91916 32.8093
88 1 Ar 4.75449 15.6618 33.2731
89 1 Ar 4.84817 11.9072 3.47753
90 1 Ar 5.11584 13.1552 7.2561
91 1 Ar 4.72276 14.3751 12.346
92 1 Ar 4.41717 12.3425 17.1488
93 1 Ar 3.40109 13.2559 20.5469
94 1 Ar 5.07286 11.9371 24.334
95 1 Ar 4.7548 12.8377 27.9817
96 1 Ar 3.31698 15.0454 1.50023
97 1 Ar 2.78127 16.4071 4.92561
98 1 Ar 3.18515 17.2631 7.95347
99 1 Ar 3.93098 17.9713 11.8942
100 1 Ar 5.09744 17.855 15.6275
101 1 Ar 5.69542 15.7834 21.6121
102 1 Ar 3.09345 15.654 25.889
103 1 Ar 4.98378 17.0747 28.88
104 1 Ar 5.64161 19.7261 1.89489
105 1 Ar 3.67993 19.9676 5.31901
106 1 Ar 3.6528 21.039 10.3384
107 1 Ar 5.36516 24.5288 10.3576
108 1 Ar 2.3279 20.5461 16.5585
109 1 Ar 5.18588 22.1743 20.5243
110 1 Ar 4.41918 19.2282 23.9725
111 1 Ar 2.97488 20.8426 27.7812
112 1 Ar 4.51836 23.7561 35.3414
113 1 Ar 5.29755 25.2795 1.80797
114 1 Ar 3.97661 23.2622 7.26565
115 1 Ar 7.31421 22.5465 12.0119
116 1 Ar 5.72247 24.3196 14.6192
117 1 Ar 4.39043 25.2286 21.0871
118 1 Ar 3.129 24.8619 24.6925
119 1 Ar 3.78908 26.3884 32.1684
120 1 Ar 5.95294 28.9247 0.437368
121 1 Ar 4.35327 26.8629 6.56043
122 1 Ar 3.34728 29.6771 8.20146
123 1 Ar 3.21581 27.459 11.284
124 1 Ar 6.90158 31.588 20.3777
125 1 Ar 5.70887 28.5184 20.5623
126 1 Ar 7.12078 23.2597 23.4223
127 1 Ar 1.09694 28.77 30.4878
128 1 Ar 8.00594 32.4986 35.102
129 1 Ar 9.87487 35.1567 3.31023
130 1 Ar 8.67394 0.289051 6.73999
131 1 Ar 8.42483 0.786051 12.2874
132 1 Ar 8.8292 34.3551 18.8441
133 1 Ar 5.33244 35.3842 19.3128
134 1 Ar 9.94337 35.4974 25.9876
135 1 Ar 6.6451 1.90742 32.0987
136 1 Ar 6.75568 5.61919 2.6816
137 1 Ar 6.82262 2.55096 4.44523
138 1 Ar 8.96756 4.9648 7.97537
139 1 Ar 8.22826 5.18633 12.0646
140 1 Ar 7.72745 4.41112 17.3081
141 1 Ar 7.26547 2.59137 21.0718
142 1 Ar 9.58386 3.6691 25.6506
143 1 Ar 7.68398 4.46092 28.8327
144 1 Ar 9.61941 8.31809 0.671435
145 1 Ar 7.42974 8.84034 3.51331
146 1 Ar 7.1498 8.93852 7.6986
147 1 Ar 7.07014 8.89527 11.1988
148 1 Ar 6.55061 9.95092 14.7322
149 1 Ar 8.37755 7.33872 19.711
150 1 Ar 7.58381 6.26306 24.2188
151 1 Ar 7.6401 8.04947 27.235
152 1 Ar 6.51876 11.6143 0.286781
153 1 Ar 8.70652 11.8452 4.94294
154 1 Ar 8.31493 13.2732 8.27827
155 1 Ar 11.4228 12.5222 14.6966
156 1 Ar 8.57986 12.3711 16.739
157 1 Ar 7.1644 12.5555 20.7417
158 1 Ar 9.44387 11.5644 24.1708
159 1 Ar 8.69424 14.1096 27.4887
160 1 Ar 12.0752 14.8366 32.7368
161 1 Ar 8.28322 15.1274 3.53424
162 1 Ar 6.70278 16.4099 8.94323
163 1 Ar 8.86785 15.4254 13.1927
164 1 Ar 8.67742 16.0647 16.4797
165 1 Ar 9.24062 15.8024 20.1192
166 1 Ar 8.05253 15.3399 24.3908
167 1 Ar 7.56886 14.7304 31.1383
168 1 Ar 12.3497 18.5012 34.5817
169 1 Ar 7.63335 19.7464 5.06423
170 1 Ar 8.307 20.8002 8.74529
171 1 Ar 7.56369 19.1796 13.6179
172 1 Ar 7.00298 21.7392 16.2124
173 1 Ar 7.84536 19.5541 19.3271
174 1 Ar 8.53955 18.6596 23.968
175 1 Ar 7.35646 23.203 28.4373
176 1 Ar 9.30741 26.9464 3.26271
177 1 Ar 8.72936 20.9989 0.23666
178 1 Ar 7.73611 24.6733 7.26263
179 1 Ar 9.32172 25.5795 10.7731
180 1 Ar 8.51551 26.0735 15.8794
181 1 Ar 7.72095 24.3592 19.4527
182 1 Ar 11.8586 32.5895 19.1862
183 1 Ar 7.48409 31.5852 29.7675
184 1 Ar 8.04696 32.0567 2.63999
185 1 Ar 7.59957 29.401 5.85906
186 1 Ar 6.73693 28.4668 9.37745
187 1 Ar 7.29997 28.284 13.886
188 1 Ar 7.18692 29.879 17.3091
189 1 Ar 8.97979 26.9544 21.4575
190 1 Ar 8.80843 30.2632 23.3927
191 1 Ar 10.1559 27.0489 29.1112
192 1 Ar 11.5765 31.5754 3.30373
193 1 Ar 12.2792 0.350907 36.2605
194 1 Ar 12.1363 0.198241 9.6688
195 1 Ar 12.1615 34.9322 12.7181
196 1 Ar 11.284 0.70597 15.97
197 1 Ar 5.76964 34.7858 13.2298
198 1 Ar 12.725 2.27358 27.4916
199 1 Ar 12.1806 33.3964 33.6604
200 1 Ar 8.53686 10.3159 34.5243
201 1 Ar 11.39 4.48818 4.22282
202 1 Ar 13.0268 4.66055 8.4513
203 1 Ar 11.5776 2.68362 12.8179
204 1 Ar 12.3083 6.33172 17.751
205 1 Ar 13.1784 4.95158 23.4132
206 1 Ar 13.9974 5.69016 28.5644
207 1 Ar 9.78696 4.9031 1.04239
208 1 Ar 13.8892 5.34425 0.287692
209 1 Ar 10.7032 7.9469 5.04048
210 1 Ar 13.9122 6.25821 12.0366
211 1 Ar 10.8795 8.23255 12.9341
212 1 Ar 10.6393 9.56965 17.1751
213 1 Ar 12.6802 8.24173 21.5422
214 1 Ar 12.4454 9.50154 26.0745
215 1 Ar 10.2553 6.12782 30.2187
216 1 Ar 12.8268 9.62519 35.9382
217 1 Ar 11.4965 11.208 2.45722
218 1 Ar 11.6408 13.3027 6.99179
219 1 Ar 10.5053 12.9771 11.2696
220 1 Ar 14.1853 10.7376 15.1745
221 1 Ar 10.7289 12.4508 21.0381
222 1 Ar 15.5076 11.4062 23.8632
223 1 Ar 10.0021 10.9927 30.2185
224 1 Ar 18.2741 22.4953 33.4743
225 1 Ar 12.4828 17.5989 4.8129
226 1 Ar 13.5961 17.6171 8.34116
227 1 Ar 12.1482 16.1445 13.0302
228 1 Ar 13.1 15.3953 16.364
229 1 Ar 12.7574 15.0373 21.3998
230 1 Ar 12.3036 15.6182 26.3173
231 1 Ar 10.7853 16.1391 29.5447
232 1 Ar 14.1406 16.0305 1.40549
233 1 Ar 10.8432 20.3172 3.08345
234 1 Ar 11.8269 20.663 8.54795
235 1 Ar 11.2157 20.2336 13.9147
236 1 Ar 10.6477 21.8734 17.9316
237 1 Ar 12.1729 18.3098 19.5228
238 1 Ar 12.3883 21.3402 24.093
239 1 Ar 11.4412 18.9774 27.9027
240 1 Ar 11.2736 24.0718 0.28804
241 1 Ar 12.6548 24.0271 5.14466
242 1 Ar 11.1273 24.2002 8.47013
243 1 Ar 13.5162 22.6276 11.3358
244 1 Ar 11.5982 24.3694 15.5563
245 1 Ar 11.9315 25.3774 20.6525
246 1 Ar 13.2724 24.8758 25.1216
247 1 Ar 13.3005 21.8506 28.295
248 1 Ar 9.65914 28.4905 34.7057
249 1 Ar 13.9761 28.3857 3.17299
250 1 Ar 10.1751 29.029 10.2561
251 1 Ar 12.2973 27.0213 12.6066
252 1 Ar 11.0319 28.4115 15.8727
253 1 Ar 8.23533 32.6076 14.5284
254 1 Ar 11.7811 28.1944 24.4001
255 1 Ar 11.6305 32.6855 29.4816
256 1 Ar 31.7374 20.9861 22.6014
257 1 Ar 12.9814 0.0527526 4.92725
258 1 Ar 17.4996 0.764712 7.75269
259 1 Ar 16.1055 33.9625 13.3082
260 1 Ar 16.6043 35.2186 16.1463
261 1 Ar 15.1858 0.580502 19.4386
262 1 Ar 16.4341 0.83391 23.562
263 1 Ar 13.9318 34.948 27.9663
264 1 Ar 17.3212 1.60166 0.428627
265 1 Ar 15.053 5.53167 3.95967
266 1 Ar 16.2731 5.08177 7.10402
267 1 Ar 16.6706 2.63619 10.8211
268 1 Ar 14.5459 2.10547 15.685
269 1 Ar 15.2565 4.27434 18.8999
270 1 Ar 16.3836 4.30423 24.2222
271 1 Ar 17.1011 2.2962 28.5929
272 1 Ar 16.6518 10.8298 35.3929
273 1 Ar 14.635 9.53515 2.42063
274 1 Ar 14.8798 9.23203 7.70109
275 1 Ar 17.84 6.76332 10.5974
276 1 Ar 15.5756 7.65498 14.6902
277 1 Ar 16.62 6.97292 20.9058
278 1 Ar 15.3484 8.04553 23.776
279 1 Ar 18.5898 7.23716 27.0961
280 1 Ar 21.3394 14.0598 35.6537
281 1 Ar 16.5228 13.3157 3.98633
282 1 Ar 15.4894 13.8788 8.4148
283 1 Ar 14.072 11.7139 11.2807
284 1 Ar 18.0104 11.726 13.906
285 1 Ar 15.2154 10.6595 20.1602
286 1 Ar 17.3094 13.6646 21.6341
287 1 Ar 13.2787 13.0179 29.3524
288 1 Ar 18.5569 16.2445 2.05064
289 1 Ar 16.6314 17.0784 5.37646
290 1 Ar 17.4522 17.2746 9.17191
291 1 Ar 16.3845 15.7613 13.8565
292 1 Ar 17.1652 13.6787 17.6823
293 1 Ar 16.2956 16.8292 19.8224
294 1 Ar 16.9091 17.0016 23.1864
295 1 Ar 16.5646 14.4679 25.8196
296 1 Ar 15.6153 19.4676 0.874012
297 1 Ar 14.7961 20.64 5.67248
298 1 Ar 16.3899 20.9859 8.97663
299 1 Ar 15.0093 20.045 13.4326
300 1 Ar 14.9519 19.4602 17.1076
301 1 Ar 16.2544 20.162 20.3235
302 1 Ar 15.9281 20.2093 25.1361
303 1 Ar 16.6946 19.9557 28.8652
304 1 Ar 14.3686 23.9348 1.63381
305 1 Ar 16.6287 23.754 4.48178
306 1 Ar 15.0439 24.6546 8.16989
307 1 Ar 16.5211 26.0882 12.0554
308 1 Ar 15.4924 24.452 14.8571
309 1 Ar 14.2587 23.3013 18.7006
310 1 Ar 17.0635 23.2928 22.7724
311 1 Ar 16.8196 24.9549 26.6183
312 1 Ar 15.8421 26.5745 36.4195
313 1 Ar 17.1068 27.1708 4.32052
314 1 Ar 17.0649 28.5273 9.48288
315 1 Ar 18.6254 29.8028 12.221
316 1 Ar 14.6463 28.1928 16.9455
317 1 Ar 14.7093 29.0773 20.2044
318 1 Ar 15.3258 26.3569 22.7052
319 1 Ar 15.0625 24.0645 30.5968
320 1 Ar 20.2927 32.877 34.8367
321 1 Ar 20.4558 2.33541 4.03356
322 1 Ar 20.6531 35.4978 7.43177
323 1 Ar 20.4565 1.71357 11.2803
324 1 Ar 20.7509 33.6819 20.4461
325 1 Ar 22.6125 1.32651 23.2594
326 1 Ar 24.4116 3.80257 27.6328
327 1 Ar 20.4384 3.24707 29.3791
328 1 Ar 19.4676 8.55939 34.3707
329 1 Ar 22.9242 4.72886 2.28377
330 1 Ar 21.2396 2.45921 7.73107
331 1 Ar 21.2426 5.45794 13.4796
332 1 Ar 18.3337 5.27671 16.7122
333 1 Ar 21.4436 4.88385 23.5445
334 1 Ar 19.4735 2.45355 25.2679
335 1 Ar 19.7908 3.80172 33.2869
336 1 Ar 17.4405 9.55637 30.938
337 1 Ar 19.5848 5.80212 4.71078
338 1 Ar 19.2715 8.85822 6.53442
339 1 Ar 20.5687 9.13749 11.5916
340 1 Ar 18.922 8.47659 14.7717
341 1 Ar 21.182 7.65974 19.8903
342 1 Ar 19.6273 8.06199 23.5607
343 1 Ar 20.9193 9.62877 28.2596
344 1 Ar 20.775 10.9722 1.35081
345 1 Ar 18.3455 10.4224 3.66035
346 1 Ar 18.4297 12.2593 6.94063
347 1 Ar 22.6186 12.8536 12.6157
348 1 Ar 20.4848 11.886 16.4478
349 1 Ar 19.6903 11.6445 19.7932
350 1 Ar 19.7551 11.4463 25.2683
351 1 Ar 19.9561 13.3384 28.4391
352 1 Ar 20.0119 17.5983 35.4165
353 1 Ar 22.4577 16.014 3.69481
354 1 Ar 20.1544 15.2814 6.43537
355 1 Ar 20.9084 17.3308 11.3274
356 1 Ar 20.2398 15.4593 14.5329
357 1 Ar 19.5009 16.3853 18.1938
358 1 Ar 20.2594 15.1029 23.9746
359 1 Ar 21.4052 17.0796 31.6205
360 1 Ar 19.1568 20.5894 3.88632
361 1 Ar 21.4232 22.6077 5.95539
362 1 Ar 20.0137 20.9555 9.10765
363 1 Ar 20.8785 21.9591 13.6251
364 1 Ar 18.6658 21.32 16.9362
365 1 Ar 19.8777 23.2968 19.6142
366 1 Ar 21.8073 19.8524 24.3797
367 1 Ar 20.1573 22.1332 28.9611
368 1 Ar 14.5022 23.8419 34.1974
369 1 Ar 20.3175 24.7321 3.22175
370 1 Ar 19.4136 25.164 6.90104
371 1 Ar 19.9455 25.9353 10.7254
372 1 Ar 22.8537 24.5102 17.4124
373 1 Ar 17.6185 26.0146 19.5919
374 1 Ar 19.0396 22.254 25.4296
375 1 Ar 18.4209 25.4661 30.0343
376 1 Ar 20.9546 24.46 33.7229
377 1 Ar 20.7341 29.4275 3.3993
378 1 Ar 22.8728 29.7867 7.21887
379 1 Ar 22.8305 28.8073 11.2713
380 1 Ar 20.0821 27.3703 16.8151
381 1 Ar 19.8678 28.1992 21.7611
382 1 Ar 21.5211 27.0923 26.0554
383 1 Ar 20.2405 30.7933 26.322
384 1 Ar 24.6493 0.98005 0.0756184
385 1 Ar 21.2046 1.77771 36.2763
386 1 Ar 24.3746 36.5796 6.99475
387 1 Ar 22.4623 35.7926 12.9035
388 1 Ar 23.1916 35.5552 18.2736
389 1 Ar 24.1072 3.21932 20.6684
390 1 Ar 25.071 34.4762 27.6818
391 1 Ar 28.5102 28.0134 22.8279
392 1 Ar 26.2703 3.91316 1.05615
393 1 Ar 24.5838 3.00343 5.09003
394 1 Ar 26.1376 10.3299 7.47218
395 1 Ar 25.1838 3.56102 12.0934
396 1 Ar 25.8407 2.40735 16.7365
397 1 Ar 21.8973 3.65186 17.4803
398 1 Ar 21.979 6.51754 26.4193
399 1 Ar 24.4886 5.3993 30.9249
400 1 Ar 27.0672 10.2986 1.5608
401 1 Ar 25.2901 6.51971 5.9648
402 1 Ar 23.0583 7.72969 8.54515
403 1 Ar 25.0231 8.68962 12.0206
404 1 Ar 22.9335 7.95875 15.9682
405 1 Ar 26.0271 8.38299 21.1691
406 1 Ar 23.1711 8.97054 23.3346
407 1 Ar 24.7773 8.56959 29.122
408 1 Ar 24.6986 12.518 35.9023
409 1 Ar 25.1568 13.8398 2.81741
410 1 Ar 19.1696 13.2428 10.8006
411 1 Ar 26.0395 13.2554 11.9865
412 1 Ar 24.1544 11.6405 15.5445
413 1 Ar 23.6488 12.3301 20.4327
414 1 Ar 24.0046 12.2621 24.0438
415 1 Ar 23.4914 11.7344 32.4797
416 1 Ar 24.3884 16.2212 0.327669
417 1 Ar 24.8875 19.1371 2.6046
418 1 Ar 25.0427 15.7322 7.51768
419 1 Ar 23.9928 16.1581 14.1267
420 1 Ar 23.1334 14.6114 17.0383
421 1 Ar 24.6161 16.3568 20.5642
422 1 Ar 22.4303 15.2643 26.8509
423 1 Ar 25.0851 14.4229 29.5383
424 1 Ar 23.2749 20.4639 36.2451
425 1 Ar 25.8853 22.0188 5.2059
426 1 Ar 21.398 18.6654 6.56346
427 1 Ar 24.7657 19.8791 12.2931
428 1 Ar 26.3809 23.3643 15.7625
429 1 Ar 23.8146 19.7415 20.769
430 1 Ar 24.87 21.2672 24.7204
431 1 Ar 23.1425 21.3572 27.6152
432 1 Ar 27.1696 23.985 32.2959
433 1 Ar 23.8543 25.6129 6.13107
434 1 Ar 24.7077 22.2575 9.53075
435 1 Ar 24.0001 25.4912 13.176
436 1 Ar 25.9199 23.5362 19.224
437 1 Ar 27.3786 22.2902 22.0973
438 1 Ar 24.016 24.7937 24.3496
439 1 Ar 25.4857 24.6001 28.1441
440 1 Ar 27.4319 30.7428 4.89157
441 1 Ar 22.0402 32.5794 4.3454
442 1 Ar 23.9137 26.1524 9.3839
443 1 Ar 19.4172 30.5201 18.0437
444 1 Ar 25.1514 28.873 16.355
445 1 Ar 23.3979 29.9392 19.9219
446 1 Ar 24.2734 28.8811 24.5307
447 1 Ar 24.5978 28.5518 29.4027
448 1 Ar 29.9971 35.9805 35.8793
449 1 Ar 27.1153 33.7621 2.39055
450 1 Ar 25.5052 32.6206 11.4268