ITEM: TIMESTEP
-1
ITEM: NUMBER OF ATOMS
500
ITEM: BOX BOUNDS pp pp pp
0 30.3927
0 30.3927
0 30.3927
ITEM: ATOMS id type element xu yu zu
0 1 Ar 0 0 0
1 1 Ar 0 0 3.37697
2 1 Ar 0 0 6.75394
3 1 Ar 0 0 10.1309
4 1 Ar 0 0 13.5079
5 1 Ar 0 0 16.8848
6 1 Ar 0 0 20.2618
7 1 Ar 0 0 23.6388
8 1 Ar 0 3.37697 0
9 1 Ar 0 3.37697 3.37697
10 1 Ar 0 3.37697 6.75394
11 1 Ar 0 3.37697 10.1309
12 1 Ar 0 3.37697 13.5079
13 1 Ar 0 3.37697 16.8848
14 1 Ar 0 3.37697 20.2618
15 1 Ar 0 3.37697 23.6388
16 1 Ar 0 6.75394 0
17 1 Ar 0 6.75394 3.37697
18 1 Ar 0 6.75394 6.75394
19 1 Ar 0 6.75394 10.1309
20 1 Ar 0 6.75394 13.5079
21 1 Ar 0 6.75394 16.8848
22 1 Ar 0 6.75394 20.2618
23 1 Ar 0 6.75394 23.6388
24 1 Ar 0 10.1309 0
25 1 Ar 0 10.1309 3.37697
26 1 Ar 0 10.1309 6.75394
27 1 Ar 0 10.1309 10.1309
28 1 Ar 0 10.1309 13.5079
29 1 Ar 0 10.1309 16.8848
30 1 Ar 0 10.1309 20.2618
31 1 Ar 0 10.1309 23.6388
32 1 Ar 0 13.5079 0
33 1 Ar 0 13.5079 3.37697
34 1 Ar 0 13.5079 6.75394
35 1 Ar 0 13.5079 10.1309
36 1 Ar 0 13.5079 13.5079
37 1 Ar 0 13.5079 16.8848
38 1 Ar 0 13.5079 20.2618
39 1 Ar 0 13.5079 23.6388
40 1 Ar 0 16.8848 0
41 1 Ar 0 16.8848 3.37697
42 1 Ar 0 16.8848 6.75394
43 1 Ar 0 16.8848 10.1309
44 1 Ar 0 16.8848 13.5079
45 1 Ar 0 16.8848 16.8848
46 1 Ar 0 16.8848 20.2618
47 1 Ar 0 16.8848 23.6388
48 1 Ar 0 20.2618 0
49 1 Ar 0 20.2618 3.37697
50 1 Ar 0 20.2618 6.75394
51 1 Ar 0 20.2618 10.1309
52 1 Ar 0 20.2618 13.5079
53 1 Ar 0 20.2618 16.8848
54 1 Ar 0 20.2618 20.2618
55 1 Ar 0 20.2618 23.6388
56 1 Ar 0 23.6388 0
57 1 Ar 0 23.6388 3.37697
58 1 Ar 0 23.6388 6.75394
59 1 Ar 0 23.6388 10.1309
60 1 Ar 0 23.6388 13.5079
61 1 Ar 0 23.6388 16.8848
62 1 Ar 0 23.6388 20.2618
63 1 Ar 0 23.6388 23.6388
64 1 Ar 3.37697 0 0
65 1 Ar 3.37697 0 3.37697
66 1 Ar 3.37697 0 6.75394
67 1 Ar 3.37697 0 10.1309
68 1 Ar 3.37697 0 13.5079
69 1 Ar 3.37697 0 16.8848
70 1 Ar 3.37697 0 20.2618
71 1 Ar 3.37697 0 23.6388
72 1 Ar 3.37697 3.37697 0
73 1 Ar 3.37697 3.37697 3.37697
74 1 Ar 3.37697 3.37697 6.75394
75 1 Ar 3.37697 3.37697 10.1309
76 1 Ar 3.37697 3.37697 13.5079
77 1 Ar 3.37697 3.37697 16.8848
78 1 Ar 3.37697 3.37697 20.2618
79 1 Ar 3.37697 3.37697 23.6388
80 1 Ar 3.37697 6.75394 0
81 1 Ar 3.37697 6.75394 3.37697
82 1 Ar 3.37697 6.75394 6.75394
83 1 Ar 3.37697 6.75394 10.1309
84 1 Ar 3.37697 6.75394 13.5079
85 1 Ar 3.37697 6.75394 16.8848
86 1 Ar 3.37697 6.75394 20.2618
87 1 Ar 3.37697 6.75394 23.6388
88 1 Ar 3.37697 10.1309 0
89 1 Ar 3.37697 10.1309 3.37697
90 1 Ar 3.37697 10.1309 6.75394
91 1 Ar 3.37697 10.1309 10.1309
92 1 Ar 3.37697 10.1309 13.5079
93 1 Ar 3.37697 10.1309 16.8848
94 1 Ar 3.37697 10.1309 20.2618
95 1 Ar 3.37697 10.1309 23.6388
96 1 Ar 3.37697 13.5079 0
97 1 Ar 3.37697 13.5079 3.37697
98 1 Ar 3.37697 13.5079 6.75394
99 1 Ar 3.37697 13.5079 10.1309
100 1 Ar 3.37697 13.5079 13.5079
101 1 Ar 3.37697 13.5079 16.8848
102 1 Ar 3.37697 13.5079 20.2618
103 1 Ar 3.37697 13.5079 23.6388
104 1 Ar 3.37697 16.8848 0
105 1 Ar 3.37697 16.8848 3.37697
106 1 Ar 3.37697 16.8848 6.75394
107 1 Ar 3.37697 16.8848 10.1309
108 1 Ar 3.37697 16.8848 13.5079
109 1 Ar 3.37697 16.8848 16.8848
110 1 Ar 3.37697 16.8848 20.2618
111 1 Ar 3.37697 16.8848 23.6388
112 1 Ar 3.37697 20.2618 0
113 1 Ar 3.37697 20.2618 3.37697
114 1 Ar 3.37697 20.2618 6.75394
115 1 Ar 3.37697 20.2618 10.1309
116 1 Ar 3.37697 20.2618 13.5079
117 1 Ar 3.37697 20.2618 16.8848
118 1 Ar 3.37697 20.2618 20.2618
119 1 Ar 3.37697 20.2618 23.6388
120 1 Ar 3.37697 23.6388 0
121 1 Ar 3.37697 23.6388 3.37697
122 1 Ar 3.37697 23.6388 6.75394
123 1 Ar 3.37697 23.6388 10.1309
124 1 Ar 3.37697 23.6388 13.5079
125 1 Ar 3.37697 23.6388 16.8848
126 1 Ar 3.37697 23.6388 20.2618
127 1 Ar 3.37697 23.6388 23.6388
128 1 Ar 6.75394 0 0
129 1 Ar 6.75394 0 3.37697
130 1 Ar 6.75394 0 6.75394
131 1 Ar 6.75394 0 10.1309
132 1 Ar 6.75394 0 13.5079
133 1 Ar 6.75394 0 16.8848
134 1 Ar 6.75394 0 20.2618
135 1 Ar 6.75394 0 23.6388
136 1 Ar 6.75394 3.37697 0
137 1 Ar 6.75394 3.37697 3.37697
138 1 Ar 6.75394 3.37697 6.75394
139 1 Ar 6.75394 3.37697 10.1309
140 1 Ar 6.75394 3.37697 13.5079
141 1 Ar 6.75394 3.37697 16.8848
142 1 Ar 6.75394 3.37697 20.2618
143 1 Ar 6.75394 3.37697 23.6388
144 1 Ar 6.75394 6.75394 0
145 1 Ar 6.75394 6.75394 3.37697
146 1 Ar 6.75394 6.75394 6.75394
147 1 Ar 6.75394 6.75394 10.1309
148 1 Ar 6.75394 6.75394 13.5079
149 1 Ar 6.75394 6.75394 16.8848
150 1 Ar 6.75394 6.75394 20.2618
151 1 Ar 6.75394 6.75394 23.6388
152 1 Ar 6.75394 10.1309 0
153 1 Ar 6.75394 10.1309 3.37697
154 1 Ar 6.75394 10.1309 6.75394
155 1 Ar 6.75394 10.1309 10.1309
156 1 Ar 6.75394 10.1309 13.5079
157 1 Ar 6.75394 10.1309 16.8848
158 1 Ar 6.75394 10.1309 20.2618
159 1 Ar 6.75394 10.1309 23.6388
160 1 Ar 6.75394 13.5079 0
161 1 Ar 6.75394 13.5079 3.37697
162 1 Ar 6.75394 13.5079 6.75394
163 1 Ar 6.75394 13.5079 10.1309
164 1 Ar 6.75394 13.5079 13.5079
165 1 Ar 6.75394 13.5079 16.8848
166 1 Ar 6.75394 13.5079 20.2618
167 1 Ar 6.75394 13.5079 23.6388
168 1 Ar 6.75394 16.8848 0
169 1 Ar 6.75394 16.8848 3.37697
170 1 Ar 6.75394 16.8848 6.75394
171 1 Ar 6.75394 16.8848 10.1309
172 1 Ar 6.75394 16.8848 13.5079
173 1 Ar 6.75394 16.8848 16.8848
174 1 Ar 6.75394 16.8848 20.2618
175 1 Ar 6.75394 16.8848 23.6388
176 1 Ar 6.75394 20.2618 0
177 1 Ar 6.75394 20.2618 3.37697
178 1 Ar 6.75394 20.2618 6.75394
179 1 Ar 6.75394 20.2618 10.1309
180 1 Ar 6.75394 20.2618 13.5079
181 1 Ar 6.75394 20.2618 16.8848
182 1 Ar 6.75394 20.2618 20.2618
183 1 Ar 6.75394 20.2618 23.6388
184 1 Ar 6.75394 23.6388 0
185 1 Ar 6.75394 23.6388 3.37697
186 1 Ar 6.75394 23.6388 6.75394
187 1 Ar 6.75394 23.6388 10.1309
188 1 Ar 6.75394 23.6388 13.5079
189 1 Ar 6.75394 23.6388 16.8848
190 1 Ar 6.75394 23.6388 20.2618
191 1 Ar 6.75394 23.6388 23.6388
192 1 Ar 10.1309 0 0
193 1 Ar 10.1309 0 3.37697
194 1 Ar 10.1309 0 6.75394
195 1 Ar 10.1309 0 10.1309
196 1 Ar 10.1309 0 13.5079
197 1 Ar 10.1309 0 16.8848
198 1 Ar 10.1309 0 20.2618
199 1 Ar 10.1309 0 23.6388
200 1 Ar 10.1309 3.37697 0
201 1 Ar 10.1309 3.37697 3.37697
202 1 Ar 10.1309 3.37697 6.75394
203 1 Ar 10.1309 3.37697 10.1309
204 1 Ar 10.1309 3.37697 13.5079
205 1 Ar 10.1309 3.37697 16.8848
206 1 Ar 10.1309 3.37697 20.2618
207 1 Ar 10.1309 3.37697 23.6388
208 1 Ar 10.1309 6.75394 0
209 1 Ar 10.1309 6.75394 3.37697
210 1 Ar 10.1309 6.75394 6.75394
211 1 Ar 10.1309 6.75394 10.1309
212 1 Ar 10.1309 6.75394 13.5079
213 1 Ar 10.1309 6.75394 16.8848
214 1 Ar 10.1309 6.75394 20.2618
215 1 Ar 10.1309 6.75394 23.6388
216 1 Ar 10.1309 10.1309 0
217 1 Ar 10.1309 10.1309 3.37697
218 1 Ar 10.1309 10.1309 6.75394
219 1 Ar 10.1309 10.1309 10.1309
220 1 Ar 10.1309 10.1309 13.5079
221 1 Ar 10.1309 10.1309 16.8848
222 1 Ar 10.1309 10.1309 20.2618
223 1 Ar 10.1309 10.1309 23.6388
224 1 Ar 10.1309 13.5079 0
225 1 Ar 10.1309 13.5079 3.37697
226 1 Ar 10.1309 13.5079 6.75394
227 1 Ar 10.1309 13.5079 10.1309
228 1 Ar 10.1309 13.5079 13.5079
229 1 Ar 10.1309 13.5079 16.8848
230 1 Ar 10.1309 13.5079 20.2618
231 1 Ar 10.1309 13.5079 23.6388
232 1 Ar 10.1309 16.8848 0
233 1 Ar 10.1309 16.8848 3.37697
234 1 Ar 10.1309 16.8848 6.75394
235 1 Ar 10.1309 16.8848 10.1309
236 1 Ar 10.1309 16.8848 13.5079
237 1 Ar 10.1309 16.8848 16.8848
238 1 Ar 10.1309 16.8848 20.2618
239 1 Ar 10.1309 16.8848 23.6388
240 1 Ar 10.1309 20.2618 0
241 1 Ar 10.1309 20.2618 3.37697
242 1 Ar 10.1309 20.2618 6.75394
243 1 Ar 10.1309 20.2618 10.1309
244 1 Ar 10.1309 20.2618 13.5079
245 1 Ar 10.1309 20.2618 16.8848
246 1 Ar 10.1309 20.2618 20.2618
247 1 Ar 10.1309 20.2618 23.6388
248 1 Ar 10.1309 23.6388 0
249 1 Ar 10.1309 23.6388 3.37697
250 1 Ar 10.1309 23.6388 6.75394
251 1 Ar 10.1309 23.6388 10.1309
252 1 Ar 10.1309 23.6388 13.5079
253 1 Ar 10.1309 23.6388 16.8848
254 1 Ar 10.1309 23.6388 20.2618
255 1 Ar 10.1309 23.6388 23.6388
256 1 Ar 13.5079 0 0
257 1 Ar 13.5079 0 3.37697
258 1 Ar 13.5079 0 6.75394
259 1 Ar 13.5079 0 10.1309
260 1 Ar 13.5079 0 13.5079
261 1 Ar 13.5079 0 16.8848
262 1 Ar 13.5079 0 20.2618
263 1 Ar 13.5079 0 23.6388
264 1 Ar 13.5079 3.37697 0
265 1 Ar 13.5079 3.37697 3.37697
266 1 Ar 13.5079 3.37697 6.75394
267 1 Ar 13.5079 3.37697 10.1309
268 1 Ar 13.5079 3.37697 13.5079
269 1 Ar 13.5079 3.37697 16.8848
270 1 Ar 13.5079 3.37697 20.2618
271 1 Ar 13.5079 3.37697 23.6388
272 1 Ar 13.5079 6.75394 0
273 1 Ar 13.5079 6.75394 3.37697
274 1 Ar 13.5079 6.75394 6.75394
275 1 Ar 13.5079 6.75394 10.1309
276 1 Ar 13.5079 6.75394 13.5079
277 1 Ar 13.5079 6.75394 16.8848
278 1 Ar 13.5079 6.75394 20.2618
279 1 Ar 13.5079 6.75394 23.6388
280 1 Ar 13.5079 10.1309 0
281 1 Ar 13.5079 10.1309 3.37697
282 1 Ar 13.5079 10.1309 6.75394
283 1 Ar 13.5079 10.1309 10.1309
284 1 Ar 13.5079 10.1309 13.5079
285 1 Ar 13.5079 10.1309 16.8848
286 1 Ar 13.5079 10.1309 20.2618
287 1 Ar 13.5079 10.1309 23.6388
288 1 Ar 13.5079 13.5079 0
289 1 Ar 13.5079 13.5079 3.37697
290 1 Ar 13.5079 13.5079 6.75394
291 1 Ar 13.5079 13.5079 10.1309
292 1 Ar 13.5079 13.5079 13.5079
293 1 Ar 13.5079 13.5079 16.8848
294 1 Ar 13.5079 13.5079 20.2618
295 1 Ar 13.5079 13.5079 23.6388
296 1 Ar 13.5079 16.8848 0
297 1 Ar 13.5079 16.8848 3.37697
298 1 Ar 13.5079 16.8848 6.75394
299 1 Ar 13.5079 16.8848 10.1309
300 1 Ar 13.5079 16.8848 13.5079
301 1 Ar 13.5079 16.8848 16.8848
302 1 Ar 13.5079 16.8848 20.2618
303 1 Ar 13.5079 16.8848 23.6388
304 1 Ar 13.5079 20.2618 0
305 1 Ar 13.5079 20.2618 3.37697
306 1 Ar 13.5079 20.2618 6.75394
307 1 Ar 13.5079 20.2618 10.1309
308 1 Ar 13.5079 20.2618 13.5079
309 1 Ar 13.5079 20.2618 16.8848
310 1 Ar 13.5079 20.2618 20.2618
311 1 Ar 13.5079 20.2618 23.6388
312 1 Ar 13.5079 23.6388 0
313 1 Ar 13.5079 23.6388 3.37697
314 1 Ar 13.5079 23.6388 6.75394
315 1 Ar 13.5079 23.6388 10.1309
316 1 Ar 13.5079 23.6388 13.5079
317 1 Ar 13.5079 23.6388 16.8848
318 1 Ar 13.5079 23.6388 20.2618
319 1 Ar 13.5079 23.6388 23.6388
320 1 Ar 16.8848 0 0
321 1 Ar 16.8848 0 3.37697
322 1 Ar 16.8848 0 6.75394
323 1 Ar 16.8848 0 10.1309
324 1 Ar 16.8848 0 13.5079
325 1 Ar 16.8848 0 16.8848
326 1 Ar 16.8848 0 20.2618
327 1 Ar 16.8848 0 23.6388
328 1 Ar 16.8848 3.37697 0
329 1 Ar 16.8848 3.37697 3.37697
330 1 Ar 16.8848 3.37697 6.75394
331 1 Ar 16.8848 3.37697 10.1309
332 1 Ar 16.8848 3.37697 13.5079
333 1 Ar 16.8848 3.37697 16.8848
334 1 Ar 16.8848 3.37697 20.2618
335 1 Ar 16.8848 3.37697 23.6388
336 1 Ar 16.8848 6.75394 0
337 1 Ar 16.8848 6.75394 3.37697
338 1 Ar 16.8848 6.75394 6.75394
339 1 Ar 16.8848 6.75394 10.1309
340 1 Ar 16.8848 6.75394 13.5079
341 1 Ar 16.8848 6.75394 16.8848
342 1 Ar 16.8848 6.75394 20.2618
343 1 Ar 16.8848 6.75394 23.6388
344 1 Ar 16.8848 10.1309 0
345 1 Ar 16.8848 10.1309 3.37697
346 1 Ar 16.8848 10.1309 6.75394
347 1 Ar 16.8848 10.1309 10.1309
348 1 Ar 16.8848 10.1309 13.5079
349 1 Ar 16.8848 10.1309 16.8848
350 1 Ar 16.8848 10.1309 20.2618
351 1 Ar 16.8848 10.1309 23.6388
352 1 Ar 16.8848 13.5079 0
353 1 Ar 16.8848 13.5079 3.37697
354 1 Ar 16.8848 13.5079 6.75394
355 1 Ar 16.8848 13.5079 10.1309
356 1 Ar 16.8848 13.5079 13.5079
357 1 Ar 16.8848 13.5079 16.8848
358 1 Ar 16.8848 13.5079 20.2618
359 1 Ar 16.8848 13.5079 23.6388
360 1 Ar 16.8848 16.8848 0
361 1 Ar 16.8848 16.8848 3.37697
362 1 Ar 16.8848 16.8848 6.75394
363 1 Ar 16.8848 16.8848 10.1309
364 1 Ar 16.8848 16.8848 13.5079
365 1 Ar 16.8848 16.8848 16.8848
366 1 Ar 16.8848 16.8848 20.2618
367 1 Ar 16.8848 16.8848 23.6388
368 1 Ar 16.8848 20.2618 0
369 1 Ar 16.8848 20.2618 3.37697
370 1 Ar 16.8848 20.2618 6.75394
371 1 Ar 16.8848 20.2618 10.1309
372 1 Ar 16.8848 20.2618 13.5079
373 1 Ar 16.8848 20.2618 16.8848
374 1 Ar 16.8848 20.2618 20.2618
375 1 Ar 16.8848 20.2618 23.6388
376 1 Ar 16.8848 23.6388 0
377 1 Ar 16.8848 23.6388 3.37697
378 1 Ar 16.8848 23.6388 6.75394
379 1 Ar 16.8848 23.6388 10.1309
380 1 Ar 16.8848 23.6388 13.5079
381 1 Ar 16.8848 23.6388 16.8848
382 1 Ar 16.8848 23.6388 20.2618
383 1 Ar 16.8848 23.6388 23.6388
384 1 Ar 20.2618 0 0
385 1 Ar 20.2618 0 3.37697
386 1 Ar 20.2618 0 6.75394
387 1 Ar 20.2618 0 10.1309
388 1 Ar 20.2618 0 13.5079
389 1 Ar 20.2618 0 16.8848
390 1 Ar 20.2618 0 20.2618
391 1 Ar 20.2618 0 23.6388
392 1 Ar 20.2618 3.37697 0
393 1 Ar 20.2618 3.37697 3.37697
394 1 Ar 20.2618 3.37697 6.75394
395 1 Ar 20.2618 3.37697 10.1309
396 1 Ar 20.2618 3.37697 13.5079
397 1 Ar 20.2618 3.37697 16.8848
398 1 Ar 20.2618 3.37697 20.2618
399 1 Ar 20.2618 3.37697 23.6388
400 1 Ar 20.2618 6.75394 0
401 1 Ar 20.2618 6.75394 3.37697
402 1 Ar 20.2618 6.75394 6.75394
403 1 Ar 20.2618 6.75394 10.1309
404 1 Ar 20.2618 6.75394 13.5079
405 1 Ar 20.2618 6.75394 16.8848
406 1 Ar 20.2618 6.75394 20.2618
407 1 Ar 20.2618 6.75394 23.6388
408 1 Ar 20.2618 10.1309 0
409 1 Ar 20.2618 10.1309 3.37697
410 1 Ar 20.2618 10.1309 6.75394
411 1 Ar 20.2618 10.1309 10.1309
412 1 Ar 20.2618 10.1309 13.5079
413 1 Ar 20.2618 10.1309 16.8848
414 1 Ar 20.2618 10.1309 20.2618
415 1 Ar 20.2618 10.1309 23.6388
416 1 Ar 20.2618 13.5079 0
417 1 Ar 20.2618 13.5079 3.37697
418 1 Ar 20.2618 13.5079 6.75394
419 1 Ar 20.2618 13.5079 10.1309
420 1 Ar 20.2618 13.5079 13.5079
421 1 Ar 20.2618 13.5079 16.8848
422 1 Ar 20.2618 13.5079 20.2618
423 1 Ar 20.2618 13.5079 23.6388
424 1 Ar 20.2618 16.8848 0
425 1 Ar 20.2618 16.8848 3.37697
426 1 Ar 20.2618 16.8848 6.75394
427 1 Ar 20.2618 16.8848 10.1309
428 1 Ar 20.2618 16.8848 13.5079
429 1 Ar 20.2618 16.8848 16.8848
430 1 Ar 20.2618 16.8848 20.2618
431 1 Ar 20.2618 16.8848 23.6388
432 1 Ar 20.2618 20.2618 0
433 1 Ar 20.2618 20.2618 3.37697
434 1 Ar 20.2618 20.2618 6.75394
435 1 Ar 20.2618 20.2618 10.1309
436 1 Ar 20.2618 20.2618 13.5079
437 1 Ar 20.2618 20.2618 16.8848
438 1 Ar 20.2618 20.2618 20.2618
439 1 Ar 20.2618 20.2618 23.6388
440 1 Ar 20.2618 23.6388 0
441 1 Ar 20.2618 23.6388 3.37697
442 1 Ar 20.2618 23.6388 6.75394
443 1 Ar 20.2618 23.6388 10.1309
444 1 Ar 20.2618 23.6388 13.5079
445 1 Ar 20.2618 23.6388 16.8848
446 1 Ar 20.2618 23.6388 20.2618
447 1 Ar 20.2618 23.6388 23.6388
448 1 Ar 23.6388 0 0
449 1 Ar 23.6388 0 3.37697
450 1 Ar 23.6388 0 6.75394
451 1 Ar 23.6388 0 10.1309
452 1 Ar 23.6388 0 13.5079
453 1 Ar 23.6388 0 16.8848
454 1 Ar 23.6388 0 20.2618
455 1 Ar 23.6388 0 23.6388
456 1 Ar 23.6388 3.37697 0
457 1 Ar 23.6388 3.37697 3.37697
458 1 Ar 23.6388 3.37697 6.75394
459 1 Ar 23.6388 3.37697 10.1309
460 1 Ar 23.6388 3.37697 13.5079
461 1 Ar 23.6388 3.37697 16.8848
462 1 Ar 23.6388 3.37697 20.2618
463 1 Ar 23.6388 3.37697 23.6388
464 1 Ar 23.6388 6.75394 0
465 1 Ar 23.6388 6.75394 3.37697
466 1 Ar 23.6388 6.75394 6.75394
467 1 Ar 23.6388 6.75394 10.1309
468 1 Ar 23.6388 6.75394 13.5079
469 1 Ar 23.6388 6.75394 16.8848
470 1 Ar 23.6388 6.75394 20.2618
471 1 Ar 23.6388 6.75394 23.6388
472 1 Ar 23.6388 10.1309 0
473 1 Ar 23.6388 10.1309 3.37697
474 1 Ar 23.6388 10.1309 6.75394
475 1 Ar 23.6388 10.1309 10.1309
476 1 Ar 23.6388 10.1309 13.5079
477 1 Ar 23.6388 10.1309 16.8848
478 1 Ar 23.6388 10.1309 20.2618
479 1 Ar 23.6388 10.1309 23.6388
480 1 Ar 23.6388 13.5079 0
481 1 Ar 23.6388 13.5079 3.37697
482 1 Ar 23.6388 13.5079 6.75394
483 1 Ar 23.6388 13.5079 10.1309
484 1 Ar 23.6388 13.5079 13.5079
485 1 Ar 23.6388 13.5079 16.8848
486 1 Ar 23.6388 13.5079 20.2618
487 1 Ar 23.6388 13.5079 23.6388
488 1 Ar 23.6388 16.8848 0
489 1 Ar 23.6388 16.8848 3.37697
490 1 Ar 23.6388 16.8848 6.75394
491 1 Ar 23.6388 16.8848 10.1309
492 1 Ar 23.6388 16.8848 13.5079
493 1 Ar 23.6388 16.8848 16.8848
494 1 Ar 23.6388 16.8848 20.2618
495 1 Ar 23.6388 16.8848 23.6388
496 1 Ar 23.6388 20.2618 0
497 1 Ar 23.6388 20.2618 3.37697
498 1 Ar 23.6388 20.2618 6.75394
499 1 Ar 23.6388 20.2618 10.1309
ITEM: TIMESTEP
19999
ITEM: NUMBER OF ATOMS
500
ITEM: BOX BOUNDS pp pp pp
0 30.3927
0 30.3927
0 30.3927
ITEM: ATOMS id type element xu yu zu
0 1 Ar 28.0418 0.698026 28.8321
1 1 Ar 29.0883 30.06 2.80939
2 1 Ar 30.0554 30.342 6.94444
3 1 Ar 29.7175 29.2695 10.0584
4 1 Ar 30.1227 29.2023 14.1568
5 1 Ar 29.0486 1.09489 17.0684
6 1 Ar 0.236089 30.0635 19.9308
7 1 Ar 30.2423 0.223866 23.4283
8 1 Ar 29.8125 4.174 29.8309
9 1 Ar 29.0528 3.69392 2.9426
10 1 Ar 29.9578 3.27877 6.79703
11 1 Ar 30.0218 3.32757 10.2902
12 1 Ar 30.2287 2.17208 13.8814
13 1 Ar 28.0836 4.51322 16.0867
14 1 Ar 0.0723078 3.24878 21.6009
15 1 Ar 29.0175 3.08226 25.2562
16 1 Ar 0.925317 7.54415 28.9529
17 1 Ar 30.1619 6.98407 1.90227
18 1 Ar 0.0502148 6.60025 5.873
19 1 Ar 29.7146 6.42764 9.26498
20 1 Ar 29.8387 6.47706 13.0546
21 1 Ar 0.474552 6.87184 16.8675
22 1 Ar 28.8821 6.71271 20.2157
23 1 Ar 29.6807 6.92544 24.0143
24 1 Ar 29.9735 10.3248 0.242363
25 1 Ar 29.9888 9.98475 3.65786
26 1 Ar 0.0238929 9.75005 7.49034
27 1 Ar 29.1173 9.94902 10.8724
28 1 Ar 0.45332 9.59632 14.0181
29 1 Ar 29.1904 9.86516 17.1933
30 1 Ar 0.347875 9.59322 20.7983
31 1 Ar 29.137 10.202 24.8649
32 1 Ar 29.4301 13.9727 29.9189
33 1 Ar 30.0736 13.3822 2.94791
34 1 Ar 30.3436 13.0895 6.67354
35 1 Ar 28.9464 13.0408 9.81562
36 1 Ar 0.232282 13.1058 13.5266
37 1 Ar 30.2981 13.717 16.5504
38 1 Ar 29.2917 13.4273 19.9051
39 1 Ar 30.3763 13.9902 23.5659
40 1 Ar 27.9368 17.0285 0.437153
41 1 Ar 30.316 17.1121 3.72045
42 1 Ar 30.1238 16.3161 7.66799
43 1 Ar 28.4893 16.2293 10.5807
44 1 Ar 0.0719199 16.9654 13.6004
45 1 Ar 30.0125 17.3693 17.0275
46 1 Ar 29.7857 17.1776 21.5355
47 1 Ar 30.257 17.5119 24.8585
48 1 Ar 0.00632413 20.6227 29.2937
49 1 Ar 29.4406 20.4639 3.16333
50 1 Ar 30.2783 19.7449 6.49884
51 1 Ar 29.6907 19.6291 10.0492
52 1 Ar 30.3716 21.4118 13.3462
53 1 Ar 29.7238 20.9261 17.0958
54 1 Ar 28.5187 20.9589 20.0707
55 1 Ar 29.8629 20.9765 23.2012
56 1 Ar 28.3341 24.3698 29.2461
57 1 Ar 29.9948 23.7896 3.31787
58 1 Ar 29.3288 24.0795 6.57219
59 1 Ar 30.0765 23.9784 10.5216
60 1 Ar 28.4248 23.8075 14.6599
61 1 Ar 29.9376 24.5634 18.1154
62 1 Ar 0.207842 24.3033 22.0139
63 1 Ar 29.5827 23.5061 25.6027
64 1 Ar 3.37048 29.8391 28.5135
65 1 Ar 3.28732 30.025 1.91638
66 1 Ar 3.58876 29.5539 6.53426
67 1 Ar 2.86839 29.7254 9.9392
68 1 Ar 4.00917 0.605297 13.2255
69 1 Ar 2.23793 0.0507955 16.1444
70 1 Ar 3.88368 30.0623 19.8932
71 1 Ar 3.80873 0.764318 24.1706
72 1 Ar 2.80285 2.27264 30.1015
73 1 Ar 3.29907 3.57987 3.46481
74 1 Ar 2.65528 2.61848 6.75775
75 1 Ar 3.24168 3.25706 10.2957
76 1 Ar 3.28021 3.74231 14.3477
77 1 Ar 2.60534 3.32117 18.1729
78 1 Ar 3.56732 3.27125 22.0227
79 1 Ar 3.35993 4.05652 25.3189
80 1 Ar 3.56773 6.17577 0.388971
81 1 Ar 3.11109 6.85866 3.93306
82 1 Ar 3.40999 5.99826 7.18154
83 1 Ar 2.74175 6.6978 10.474
84 1 Ar 3.11754 7.07287 13.5476
85 1 Ar 3.74467 7.23637 16.8315
86 1 Ar 3.18901 7.26776 20.3724
87 1 Ar 2.6104 7.20481 24.6122
88 1 Ar 3.68918 10.4592 28.8335
89 1 Ar 3.44124 10.0333 2.43596
90 1 Ar 3.48167 9.40071 6.30678
91 1 Ar 2.92679 10.1015 9.59008
92 1 Ar 3.94933 11.1028 14.1406
93 1 Ar 2.49725 10.4596 17.2964
94 1 Ar 4.38392 10.4722 20.2628
95 1 Ar 2.71595 10.4528 23.4383
96 1 Ar 2.32499 13.7411 0.315964
97 1 Ar 3.66248 13.3256 3.53235
98 1 Ar 3.25575 13.0915 6.75131
99 1 Ar 2.34604 13.4315 10.9514
100 1 Ar 3.63367 14.5858 13.9265
101 1 Ar 3.65866 13.4705 17.8464
102 1 Ar 2.64513 14.0307 21.3078
103 1 Ar 2.85591 13.5504 25.4161
104 1 Ar 2.80807 17.7141 30.0505
105 1 Ar 3.14969 16.6099 2.66296
106 1 Ar 3.34389 16.6944 6.34099
107 1 Ar 2.69237 16.3697 10.0907
108 1 Ar 3.60423 17.885 13.1529
109 1 Ar 2.99767 17.0271 16.7266
110 1 Ar 3.15101 17.0571 19.9767
111 1 Ar 3.20937 17.5906 23.2922
112 1 Ar 3.59635 20.0619 27.1136
113 1 Ar 2.84498 20.3851 2.92322
114 1 Ar 2.86071 21.1586 6.88077
115 1 Ar 2.83539 19.8082 10.185
116 1 Ar 3.80998 21.1969 13.2781
117 1 Ar 2.96671 20.3182 16.456
118 1 Ar 2.41413 20.6854 20.3594
119 1 Ar 2.9836 21.171 23.9084
120 1 Ar 3.47367 23.5453 0.162703
121 1 Ar 2.96846 23.3542 4.44702
122 1 Ar 2.21843 25.2161 7.34236
123 1 Ar 3.4311 23.1914 9.9089
124 1 Ar 2.56101 23.9407 13.5785
125 1 Ar 3.84376 24.3475 17.2713
126 1 Ar 3.60994 23.8436 21.1237
127 1 Ar 2.69768 24.7175 25.504
128 1 Ar 6.7493 28.801 29.6307
129 1 Ar 6.49945 28.7912 3.51185
130 1 Ar 7.26489 0.316355 6.76362
131 1 Ar 7.08268 30.1478 11.3916
132 1 Ar 6.39648 28.4179 14.4206
133 1 Ar 6.54821 30.288 17.5847
134 1 Ar 6.93269 28.2072 20.9759
135 1 Ar 6.9147 30.2093 24.86
136 1 Ar 6.34716 4.11905 30.0696
137 1 Ar 6.54418 1.82475 3.38609
138 1 Ar 6.7039 3.9013 6.50162
139 1 Ar 6.71804 3.40471 9.88057
140 1 Ar 6.86877 2.66028 13.2848
141 1 Ar 6.05519 3.5027 16.8954
142 1 Ar 6.338 2.22456 20.1325
143 1 Ar 7.06948 3.46846 23.9736
144 1 Ar 7.22454 7.79199 0.451537
145 1 Ar 6.47199 5.72984 3.55032
146 1 Ar 6.25156 7.54326 6.81107
147 1 Ar 6.58406 6.70303 10.1782
148 1 Ar 6.33742 6.37373 13.3673
149 1 Ar 7.44689 6.55211 16.5183
150 1 Ar 6.49681 5.82596 20.5771
151 1 Ar 5.82175 6.89027 23.8989
152 1 Ar 6.79814 11.1533 29.9677
153 1 Ar 6.84929 9.36473 3.66212
154 1 Ar 6.52889 10.9548 6.77912
155 1 Ar 6.05217 10.2228 10.5343
156 1 Ar 7.45804 9.63313 13.7131
157 1 Ar 5.94619 9.81373 16.9119
158 1 Ar 7.7089 10.0441 19.8062
159 1 Ar 6.67795 10.3291 23.1049
160 1 Ar 7.75791 13.9366 27.4926
161 1 Ar 7.18659 12.8091 2.63999
162 1 Ar 6.94113 14.1235 6.31807
163 1 Ar 7.03462 13.9749 9.59133
164 1 Ar 6.6664 12.9441 12.9659
165 1 Ar 6.63948 13.07 16.4694
166 1 Ar 6.29726 13.1985 20.434
167 1 Ar 6.17046 13.5206 24.3626
168 1 Ar 7.20992 16.7222 0.658931
169 1 Ar 6.6536 16.9178 4.00873
170 1 Ar 6.67717 17.273 7.29771
171 1 Ar 6.09193 17.0157 10.6158
172 1 Ar 6.85079 16.4812 13.7312
173 1 Ar 6.57792 16.7794 17.1108
174 1 Ar 7.12188 16.8251 20.4624
175 1 Ar 6.54034 17.0807 24.2458
176 1 Ar 6.26971 20.9583 30.2642
177 1 Ar 6.662 20.2225 3.10742
178 1 Ar 6.09489 20.6191 6.48234
179 1 Ar 6.47307 21.095 10.0299
180 1 Ar 6.86289 20.3575 13.5892
181 1 Ar 6.54161 20.3983 17.0583
182 1 Ar 6.32526 20.5172 20.4413
183 1 Ar 6.74215 20.8983 24.2093
184 1 Ar 6.8194 25.1189 30.0656
185 1 Ar 6.49791 23.6991 3.13994
186 1 Ar 5.7817 23.9619 7.0649
187 1 Ar 6.66943 24.6023 10.4397
188 1 Ar 6.53249 23.9169 13.7289
189 1 Ar 7.22687 23.6402 17.1372
190 1 Ar 6.97409 24.6252 20.7143
191 1 Ar 6.30829 24.1648 24.1764
192 1 Ar 9.97439 29.4187 30.1392
193 1 Ar 9.73194 0.387497 3.32146
194 1 Ar 10.1854 28.8688 6.59287
195 1 Ar 10.409 30.2017 9.68891
196 1 Ar 10.4109 29.1745 12.9977
197 1 Ar 9.77051 29.6446 16.5011
198 1 Ar 10.2944 29.6151 20.8541
199 1 Ar 10.4191 0.0744669 25.0045
200 1 Ar 10.2637 2.67572 0.445756
201 1 Ar 10.5639 3.72895 3.90051
202 1 Ar 10.2265 2.77621 7.24629
203 1 Ar 9.88065 3.01489 11.0748
204 1 Ar 10.4112 3.33104 14.4518
205 1 Ar 9.36395 3.62514 18.6198
206 1 Ar 10.2056 2.89919 21.899
207 1 Ar 10.3462 3.844 25.5454
208 1 Ar 10.2548 6.13606 29.919
209 1 Ar 9.4849 6.68982 3.51527
210 1 Ar 9.33625 6.65171 6.89765
211 1 Ar 10.3648 6.20765 10.039
212 1 Ar 9.8388 7.1143 13.39
213 1 Ar 10.7231 6.36797 16.8404
214 1 Ar 10.2645 6.83994 20.2012
215 1 Ar 9.15975 6.54151 23.6991
216 1 Ar 9.2136 9.72831 27.6686
217 1 Ar 10.0877 9.95386 2.5426
218 1 Ar 9.48323 10.3091 5.83711
219 1 Ar 9.37067 9.61594 9.57268
220 1 Ar 10.6819 10.4262 12.7936
221 1 Ar 9.56631 9.77102 16.8185
222 1 Ar 10.9113 10.3283 20.2179
223 1 Ar 10.2637 9.8867 24.0665
224 1 Ar 9.99769 12.7723 0.18678
225 1 Ar 10.1353 13.4098 3.82281
226 1 Ar 10.2213 13.5418 7.15461
227 1 Ar 10.0221 12.9648 10.6805
228 1 Ar 10.0233 13.6545 14.0874
229 1 Ar 10.2033 13.1966 17.4647
230 1 Ar 9.51549 13.8517 20.7526
231 1 Ar 9.85061 13.9295 24.1851
232 1 Ar 10.8094 16.652 29.8406
233 1 Ar 10.0454 16.8724 2.62301
234 1 Ar 9.77396 16.9347 6.23822
235 1 Ar 9.88629 16.73 9.85052
236 1 Ar 10.1818 16.9024 13.1432
237 1 Ar 10.2073 16.6078 16.3511
238 1 Ar 10.3734 17.3592 19.8337
239 1 Ar 10.0583 17.5015 24.1764
240 1 Ar 9.64504 19.8928 29.5455
241 1 Ar 9.90585 20.3691 2.64499
242 1 Ar 9.45741 21.1847 6.36418
243 1 Ar 10.7632 20.5432 9.45999
244 1 Ar 10.0065 20.2426 12.9183
245 1 Ar 9.89697 19.9418 17.443
246 1 Ar 10.4321 20.5299 21.5615
247 1 Ar 10.4346 20.7427 24.9088
248 1 Ar 9.75439 23.2894 29.3393
249 1 Ar 10.5971 23.5009 3.38693
250 1 Ar 9.77367 25.2849 6.816
251 1 Ar 10.1784 23.9713 10.613
252 1 Ar 9.97498 23.926 13.8103
253 1 Ar 10.6109 23.3761 17.0653
254 1 Ar 10.2756 24.1293 20.6131
255 1 Ar 10.4896 25.6467 25.2169
256 1 Ar 14.0201 0.0579832 28.2066
257 1 Ar 12.8598 29.7513 2.23737
258 1 Ar 13.2209 30.1998 6.11533
259 1 Ar 13.8166 29.0862 9.8381
260 1 Ar 13.7511 28.8722 13.8819
261 1 Ar 12.9438 30.0249 16.9927
262 1 Ar 13.6368 0.122731 20.9575
263 1 Ar 13.2417 28.7387 24.2689
264 1 Ar 13.6563 3.59119 29.966
265 1 Ar 13.7024 3.15709 3.05338
266 1 Ar 13.6108 3.48074 6.31613
267 1 Ar 13.6044 2.29779 9.59385
268 1 Ar 13.5447 2.55134 13.0845
269 1 Ar 12.9124 3.21526 16.5806
270 1 Ar 13.3392 3.68691 20.1803
271 1 Ar 13.6801 2.62523 23.644
272 1 Ar 13.7346 7.12165 29.8341
273 1 Ar 12.6674 7.44652 2.6745
274 1 Ar 12.5072 6.94058 6.43868
275 1 Ar 14.0978 6.35446 9.87857
276 1 Ar 13.0796 6.68528 13.3469
277 1 Ar 14.0617 6.59899 16.8787
278 1 Ar 13.8843 7.26257 20.3178
279 1 Ar 13.2255 6.13795 23.8013
280 1 Ar 13.9502 10.4684 29.464
281 1 Ar 13.7703 10.245 3.26207
282 1 Ar 13.4307 10.1546 6.96798
283 1 Ar 12.9436 10.2149 10.4395
284 1 Ar 13.6073 10.1943 13.9209
285 1 Ar 12.774 9.7475 17.4286
286 1 Ar 14.0102 10.7769 20.3395
287 1 Ar 13.7913 9.71463 23.7775
288 1 Ar 13.4945 13.967 30.2519
289 1 Ar 13.6586 13.6271 3.03179
290 1 Ar 13.7357 13.2948 6.44769
291 1 Ar 13.3217 13.4783 9.74142
292 1 Ar 13.7412 13.4124 13.0093
293 1 Ar 13.6556 13.2977 16.8061
294 1 Ar 12.7753 13.9815 20.2679
295 1 Ar 13.3239 12.9903 23.9354
296 1 Ar 14.0253 17.1917 28.9846
297 1 Ar 13.6538 16.8125 3.76833
298 1 Ar 12.9606 16.5272 7.06471
299 1 Ar 13.2543 16.9722 10.8969
300 1 Ar 13.4208 17.069 14.4294
301 1 Ar 13.5437 16.6948 17.6588
302 1 Ar 14.0359 17.2946 21.131
303 1 Ar 13.8373 16.3853 24.2052
304 1 Ar 12.7149 20.0102 0.271398
305 1 Ar 13.338 20.7868 3.61687
306 1 Ar 13.1332 19.9977 6.68431
307 1 Ar 14.1454 21.0133 9.54244
308 1 Ar 13.19 20.5564 13.0237
309 1 Ar 13.2992 20.5595 16.4458
310 1 Ar 13.5086 20.2656 20.1548
311 1 Ar 13.6246 19.8325 23.6294
312 1 Ar 13.4559 23.2586 29.0989
313 1 Ar 13.7117 23.8954 2.39347
314 1 Ar 13.5265 23.68 6.53077
315 1 Ar 14.0987 24.8335 9.52723
316 1 Ar 13.4002 23.9423 13.4412
317 1 Ar 13.2564 25.3579 16.8654
318 1 Ar 14.1706 23.4402 20.0021
319 1 Ar 13.0041 23.397 23.8788
320 1 Ar 16.5339 28.8944 0.589998
321 1 Ar 16.4152 0.94386 3.74522
322 1 Ar 16.8062 29.426 6.77427
323 1 Ar 17.0284 30.3461 10.3838
324 1 Ar 17.1074 29.424 13.4949
325 1 Ar 16.3058 0.311682 16.6318
326 1 Ar 16.9044 30.194 20.0359
327 1 Ar 16.986 29.4348 23.539
328 1 Ar 17.7502 3.16098 29.322
329 1 Ar 17.4998 3.81643 2.82209
330 1 Ar 16.6406 2.73524 7.29648
331 1 Ar 16.5467 3.62133 10.9698
332 1 Ar 16.8538 3.75896 14.2533
333 1 Ar 16.4762 3.49174 17.6477
334 1 Ar 16.9596 2.99103 21.0335
335 1 Ar 17.1651 3.49066 24.9515
336 1 Ar 16.8712 6.62658 0.249554
337 1 Ar 15.8198 6.9143 3.72043
338 1 Ar 16.0969 6.59908 6.96126
339 1 Ar 17.6514 6.77016 9.92316
340 1 Ar 16.4968 7.08386 13.2122
341 1 Ar 17.8711 6.61617 17.2403
342 1 Ar 17.3453 6.65412 21.1043
343 1 Ar 16.3391 7.16718 24.3387
344 1 Ar 17.203 10.1075 0.242734
345 1 Ar 17.2945 9.90154 3.48142
346 1 Ar 17.3346 10.2821 6.98684
347 1 Ar 16.7919 10.2524 10.1896
348 1 Ar 16.6118 10.9991 13.6041
349 1 Ar 16.1081 9.6648 16.9743
350 1 Ar 17.3425 9.82219 20.6726
351 1 Ar 17.6801 10.4263 24.6519
352 1 Ar 16.9048 13.2424 29.5918
353 1 Ar 17.3415 13.6132 2.76098
354 1 Ar 17.3978 13.618 6.39369
355 1 Ar 17.0689 13.3492 9.61297
356 1 Ar 17.4742 14.0521 12.7235
357 1 Ar 16.9751 12.8998 16.3365
358 1 Ar 16.7199 13.3183 20.2465
359 1 Ar 16.6634 13.5306 23.9105
360 1 Ar 17.1162 16.7437 0.674433
361 1 Ar 17.2462 16.5411 4.17396
362 1 Ar 16.2371 16.9994 7.29383
363 1 Ar 17.5886 16.8491 10.5303
364 1 Ar 16.6515 17.7764 14.0515
365 1 Ar 17.1273 16.4451 16.9968
366 1 Ar 17.2493 17.1001 20.6161
367 1 Ar 17.0463 17.737 24.705
368 1 Ar 16.7496 20.1535 29.4639
369 1 Ar 17.1494 19.6998 3.05702
370 1 Ar 16.3196 21.0356 6.94855
371 1 Ar 17.3166 20.2868 10.1556
372 1 Ar 18.331 21.2384 13.8234
373 1 Ar 16.8857 20.2116 16.9288
374 1 Ar 16.7973 20.7169 20.2256
375 1 Ar 16.8144 21.0706 23.8612
376 1 Ar 17.0148 24.2267 28.5608
377 1 Ar 17.2723 23.5271 2.34545
378 1 Ar 16.9923 24.7316 5.81111
379 1 Ar 17.8729 24.1913 10.0177
380 1 Ar 16.7383 24.469 13.2808
381 1 Ar 16.9947 23.8596 17.6795
382 1 Ar 17.443 24.2942 21.032
383 1 Ar 17.2654 24.8889 24.509
384 1 Ar 20.2926 30.379 29.6605
385 1 Ar 19.5874 30.042 3.15124
386 1 Ar 20.3727 29.7608 6.3897
387 1 Ar 20.0498 0.208072 9.79604
388 1 Ar 20.9763 29.7883 12.8873
389 1 Ar 19.8822 30.0815 16.5871
390 1 Ar 20.6597 30.3103 20.255
391 1 Ar 20.6274 29.3663 23.6605
392 1 Ar 22.0326 3.20996 29.1022
393 1 Ar 20.9049 2.60095 3.24572
394 1 Ar 20.4815 2.86993 6.71114
395 1 Ar 20.2536 3.77162 10.4635
396 1 Ar 21.5633 2.83149 13.6093
397 1 Ar 20.5768 3.13996 17.3391
398 1 Ar 19.7392 4.40835 20.5835
399 1 Ar 20.6886 3.2419 23.7655
400 1 Ar 21.705 6.98449 30.2277
401 1 Ar 20.2509 6.09029 3.21044
402 1 Ar 19.6911 6.17871 6.93323
403 1 Ar 21.0712 7.0962 10.1128
404 1 Ar 20.3004 6.2607 13.9906
405 1 Ar 22.348 6.94949 16.949
406 1 Ar 20.5223 7.60206 19.839
407 1 Ar 20.2239 6.15977 24.8886
408 1 Ar 20.9236 10.1626 29.4656
409 1 Ar 20.8214 10.045 3.18824
410 1 Ar 21.4944 9.73829 7.27051
411 1 Ar 20.4002 10.8838 10.6457
412 1 Ar 19.4903 9.54567 13.4467
413 1 Ar 19.8419 10.3648 17.5049
414 1 Ar 20.7777 11.0403 20.7531
415 1 Ar 21.1563 9.67986 23.7198
416 1 Ar 20.2952 13.5799 30.0083
417 1 Ar 20.5553 13.8222 2.92784
418 1 Ar 20.6744 13.2672 6.38298
419 1 Ar 20.634 14.3621 10.657
420 1 Ar 20.2843 12.6422 13.547
421 1 Ar 20.3143 14.2481 17.0087
422 1 Ar 20.0183 14.2522 20.4428
423 1 Ar 20.4043 13.3852 23.7692
424 1 Ar 20.1143 17.0101 29.364
425 1 Ar 20.5386 17.2981 2.90114
426 1 Ar 20.0288 16.8252 6.45656
427 1 Ar 21.061 17.7302 10.0675
428 1 Ar 20.2112 16.833 13.9917
429 1 Ar 20.5313 17.3462 18.0325
430 1 Ar 20.4396 17.6629 21.4104
431 1 Ar 20.7101 16.5707 24.5643
432 1 Ar 19.9672 21.0822 29.67
433 1 Ar 20.3192 21.4782 3.36474
434 1 Ar 20.5385 20.1456 7.36651
435 1 Ar 20.8347 21.685 10.4554
436 1 Ar 22.0532 19.783 13.3875
437 1 Ar 20.6551 20.3658 16.6753
438 1 Ar 20.514 20.9221 20.5893
439 1 Ar 20.7316 20.1415 24.8103
440 1 Ar 20.2015 24.7084 30.3792
441 1 Ar 20.6731 24.9927 3.51652
442 1 Ar 21.1771 23.6058 6.66239
443 1 Ar 21.7364 25.1683 10.3759