ITEM: TIMESTEP
-1
ITEM: NUMBER OF ATOMS
500
ITEM: BOX BOUNDS pp pp pp
0 29.0696
0 29.0696
0 29.0696
ITEM: ATOMS id type element xu yu zu
0 1 Ar 0 0 0
1 1 Ar 0 0 3.22995
2 1 Ar 0 0 6.45991
3 1 Ar 0 0 9.68986
4 1 Ar 0 0 12.9198
5 1 Ar 0 0 16.1498
6 1 Ar 0 0 19.3797
7 1 Ar 0 0 22.6097
8 1 Ar 0 3.22995 0
9 1 Ar 0 3.22995 3.22995
10 1 Ar 0 3.22995 6.45991
11 1 Ar 0 3.22995 9.68986
12 1 Ar 0 3.22995 12.9198
13 1 Ar 0 3.22995 16.1498
14 1 Ar 0 3.22995 19.3797
15 1 Ar 0 3.22995 22.6097
16 1 Ar 0 6.45991 0
17 1 Ar 0 6.45991 3.22995
18 1 Ar 0 6.45991 6.45991
19 1 Ar 0 6.45991 9.68986
20 1 Ar 0 6.45991 12.9198
21 1 Ar 0 6.45991 16.1498
22 1 Ar 0 6.45991 19.3797
23 1 Ar 0 6.45991 22.6097
24 1 Ar 0 9.68986 0
25 1 Ar 0 9.68986 3.22995
26 1 Ar 0 9.68986 6.45991
27 1 Ar 0 9.68986 9.68986
28 1 Ar 0 9.68986 12.9198
29 1 Ar 0 9.68986 16.1498
30 1 Ar 0 9.68986 19.3797
31 1 Ar 0 9.68986 22.6097
32 1 Ar 0 12.9198 0
33 1 Ar 0 12.9198 3.22995
34 1 Ar 0 12.9198 6.45991
35 1 Ar 0 12.9198 9.68986
36 1 Ar 0 12.9198 12.9198
37 1 Ar 0 12.9198 16.1498
38 1 Ar 0 12.9198 19.3797
39 1 Ar 0 12.9198 22.6097
40 1 Ar 0 16.1498 0
41 1 Ar 0 16.1498 3.22995
42 1 Ar 0 16.1498 6.45991
43 1 Ar 0 16.1498 9.68986
44 1 Ar 0 16.1498 12.9198
45 1 Ar 0 16.1498 16.1498
46 1 Ar 0 16.1498 19.3797
47 1 Ar 0 16.1498 22.6097
48 1 Ar 0 19.3797 0
49 1 Ar 0 19.3797 3.22995
50 1 Ar 0 19.3797 6.45991
51 1 Ar 0 19.3797 9.68986
52 1 Ar 0 19.3797 12.9198
53 1 Ar 0 19.3797 16.1498
54 1 Ar 0 19.3797 19.3797
55 1 Ar 0 19.3797 22.6097
56 1 Ar 0 22.6097 0
57 1 Ar 0 22.6097 3.22995
58 1 Ar 0 22.6097 6.45991
59 1 Ar 0 22.6097 9.68986
60 1 Ar 0 22.6097 12.9198
61 1 Ar 0 22.6097 16.1498
62 1 Ar 0 22.6097 19.3797
63 1 Ar 0 22.6097 22.6097
64 1 Ar 3.22995 0 0
65 1 Ar 3.22995 0 3.22995
66 1 Ar 3.22995 0 6.45991
67 1 Ar 3.22995 0 9.68986
68 1 Ar 3.22995 0 12.9198
69 1 Ar 3.22995 0 16.1498
70 1 Ar 3.22995 0 19.3797
71 1 Ar 3.22995 0 22.6097
72 1 Ar 3.22995 3.22995 0
73 1 Ar 3.22995 3.22995 3.22995
74 1 Ar 3.22995 3.22995 6.45991
75 1 Ar 3.22995 3.22995 9.68986
76 1 Ar 3.22995 3.22995 12.9198
77 1 Ar 3.22995 3.22995 16.1498
78 1 Ar 3.22995 3.22995 19.3797
79 1 Ar 3.22995 3.22995 22.6097
80 1 Ar 3.22995 6.45991 0
81 1 Ar 3.22995 6.45991 3.22995
82 1 Ar 3.22995 6.45991 6.45991
83 1 Ar 3.22995 6.45991 9.68986
84 1 Ar 3.22995 6.45991 12.9198
85 1 Ar 3.22995 6.45991 16.1498
86 1 Ar 3.22995 6.45991 19.3797
87 1 Ar 3.22995 6.45991 22.6097
88 1 Ar 3.22995 9.68986 0
89 1 Ar 3.22995 9.68986 3.22995
90 1 Ar 3.22995 9.68986 6.45991
91 1 Ar 3.22995 9.68986 9.68986
92 1 Ar 3.22995 9.68986 12.9198
93 1 Ar 3.22995 9.68986 16.1498
94 1 Ar 3.22995 9.68986 19.3797
95 1 Ar 3.22995 9.68986 22.6097
96 1 Ar 3.22995 12.9198 0
97 1 Ar 3.22995 12.9198 3.22995
98 1 Ar 3.22995 12.9198 6.45991
99 1 Ar 3.22995 12.9198 9.68986
100 1 Ar 3.22995 12.9198 12.9198
101 1 Ar 3.22995 12.9198 16.1498
102 1 Ar 3.22995 12.9198 19.3797
103 1 Ar 3.22995 12.9198 22.6097
104 1 Ar 3.22995 16.1498 0
105 1 Ar 3.22995 16.1498 3.22995
106 1 Ar 3.22995 16.1498 6.45991
107 1 Ar 3.22995 16.1498 9.68986
108 1 Ar 3.22995 16.1498 12.9198
109 1 Ar 3.22995 16.1498 16.1498
110 1 Ar 3.22995 16.1498 19.3797
111 1 Ar 3.22995 16.1498 22.6097
112 1 Ar 3.22995 19.3797 0
113 1 Ar 3.22995 19.3797 3.22995
114 1 Ar 3.22995 19.3797 6.45991
115 1 Ar 3.22995 19.3797 9.68986
116 1 Ar 3.22995 19.3797 12.9198
117 1 Ar 3.22995 19.3797 16.1498
118 1 Ar 3.22995 19.3797 19.3797
119 1 Ar 3.22995 19.3797 22.6097
120 1 Ar 3.22995 22.6097 0
121 1 Ar 3.22995 22.6097 3.22995
122 1 Ar 3.22995 22.6097 6.45991
123 1 Ar 3.22995 22.6097 9.68986
124 1 Ar 3.22995 22.6097 12.9198
125 1 Ar 3.22995 22.6097 16.1498
126 1 Ar 3.22995 22.6097 19.3797
127 1 Ar 3.22995 22.6097 22.6097
128 1 Ar 6.45991 0 0
129 1 Ar 6.45991 0 3.22995
130 1 Ar 6.45991 0 6.45991
131 1 Ar 6.45991 0 9.68986
132 1 Ar 6.45991 0 12.9198
133 1 Ar 6.45991 0 16.1498
134 1 Ar 6.45991 0 19.3797
135 1 Ar 6.45991 0 22.6097
136 1 Ar 6.45991 3.22995 0
137 1 Ar 6.45991 3.22995 3.22995
138 1 Ar 6.45991 3.22995 6.45991
139 1 Ar 6.45991 3.22995 9.68986
140 1 Ar 6.45991 3.22995 12.9198
141 1 Ar 6.45991 3.22995 16.1498
142 1 Ar 6.45991 3.22995 19.3797
143 1 Ar 6.45991 3.22995 22.6097
144 1 Ar 6.45991 6.45991 0
145 1 Ar 6.45991 6.45991 3.22995
146 1 Ar 6.45991 6.45991 6.45991
147 1 Ar 6.45991 6.45991 9.68986
148 1 Ar 6.45991 6.45991 12.9198
149 1 Ar 6.45991 6.45991 16.1498
150 1 Ar 6.45991 6.45991 19.3797
151 1 Ar 6.45991 6.45991 22.6097
152 1 Ar 6.45991 9.68986 0
153 1 Ar 6.45991 9.68986 3.22995
154 1 Ar 6.45991 9.68986 6.45991
155 1 Ar 6.45991 9.68986 9.68986
156 1 Ar 6.45991 9.68986 12.9198
157 1 Ar 6.45991 9.68986 16.1498
158 1 Ar 6.45991 9.68986 19.3797
159 1 Ar 6.45991 9.68986 22.6097
160 1 Ar 6.45991 12.9198 0
161 1 Ar 6.45991 12.9198 3.22995
162 1 Ar 6.45991 12.9198 6.45991
163 1 Ar 6.45991 12.9198 9.68986
164 1 Ar 6.45991 12.9198 12.9198
165 1 Ar 6.45991 12.9198 16.1498
166 1 Ar 6.45991 12.9198 19.3797
167 1 Ar 6.45991 12.9198 22.6097
168 1 Ar 6.45991 16.1498 0
169 1 Ar 6.45991 16.1498 3.22995
170 1 Ar 6.45991 16.1498 6.45991
171 1 Ar 6.45991 16.1498 9.68986
172 1 Ar 6.45991 16.1498 12.9198
173 1 Ar 6.45991 16.1498 16.1498
174 1 Ar 6.45991 16.1498 19.3797
175 1 Ar 6.45991 16.1498 22.6097
176 1 Ar 6.45991 19.3797 0
177 1 Ar 6.45991 19.3797 3.22995
178 1 Ar 6.45991 19.3797 6.45991
179 1 Ar 6.45991 19.3797 9.68986
180 1 Ar 6.45991 19.3797 12.9198
181 1 Ar 6.45991 19.3797 16.1498
182 1 Ar 6.45991 19.3797 19.3797
183 1 Ar 6.45991 19.3797 22.6097
184 1 Ar 6.45991 22.6097 0
185 1 Ar 6.45991 22.6097 3.22995
186 1 Ar 6.45991 22.6097 6.45991
187 1 Ar 6.45991 22.6097 9.68986
188 1 Ar 6.45991 22.6097 12.9198
189 1 Ar 6.45991 22.6097 16.1498
190 1 Ar 6.45991 22.6097 19.3797
191 1 Ar 6.45991 22.6097 22.6097
192 1 Ar 9.68986 0 0
193 1 Ar 9.68986 0 3.22995
194 1 Ar 9.68986 0 6.45991
195 1 Ar 9.68986 0 9.68986
196 1 Ar 9.68986 0 12.9198
197 1 Ar 9.68986 0 16.1498
198 1 Ar 9.68986 0 19.3797
199 1 Ar 9.68986 0 22.6097
200 1 Ar 9.68986 3.22995 0
201 1 Ar 9.68986 3.22995 3.22995
202 1 Ar 9.68986 3.22995 6.45991
203 1 Ar 9.68986 3.22995 9.68986
204 1 Ar 9.68986 3.22995 12.9198
205 1 Ar 9.68986 3.22995 16.1498
206 1 Ar 9.68986 3.22995 19.3797
207 1 Ar 9.68986 3.22995 22.6097
208 1 Ar 9.68986 6.45991 0
209 1 Ar 9.68986 6.45991 3.22995
210 1 Ar 9.68986 6.45991 6.45991
211 1 Ar 9.68986 6.45991 9.68986
212 1 Ar 9.68986 6.45991 12.9198
213 1 Ar 9.68986 6.45991 16.1498
214 1 Ar 9.68986 6.45991 19.3797
215 1 Ar 9.68986 6.45991 22.6097
216 1 Ar 9.68986 9.68986 0
217 1 Ar 9.68986 9.68986 3.22995
218 1 Ar 9.68986 9.68986 6.45991
219 1 Ar 9.68986 9.68986 9.68986
220 1 Ar 9.68986 9.68986 12.9198
221 1 Ar 9.68986 9.68986 16.1498
222 1 Ar 9.68986 9.68986 19.3797
223 1 Ar 9.68986 9.68986 22.6097
224 1 Ar 9.68986 12.9198 0
225 1 Ar 9.68986 12.9198 3.22995
226 1 Ar 9.68986 12.9198 6.45991
227 1 Ar 9.68986 12.9198 9.68986
228 1 Ar 9.68986 12.9198 12.9198
229 1 Ar 9.68986 12.9198 16.1498
230 1 Ar 9.68986 12.9198 19.3797
231 1 Ar 9.68986 12.9198 22.6097
232 1 Ar 9.68986 16.1498 0
233 1 Ar 9.68986 16.1498 3.22995
234 1 Ar 9.68986 16.1498 6.45991
235 1 Ar 9.68986 16.1498 9.68986
236 1 Ar 9.68986 16.1498 12.9198
237 1 Ar 9.68986 16.1498 16.1498
238 1 Ar 9.68986 16.1498 19.3797
239 1 Ar 9.68986 16.1498 22.6097
240 1 Ar 9.68986 19.3797 0
241 1 Ar 9.68986 19.3797 3.22995
242 1 Ar 9.68986 19.3797 6.45991
243 1 Ar 9.68986 19.3797 9.68986
244 1 Ar 9.68986 19.3797 12.9198
245 1 Ar 9.68986 19.3797 16.1498
246 1 Ar 9.68986 19.3797 19.3797
247 1 Ar 9.68986 19.3797 22.6097
248 1 Ar 9.68986 22.6097 0
249 1 Ar 9.68986 22.6097 3.22995
250 1 Ar 9.68986 22.6097 6.45991
251 1 Ar 9.68986 22.6097 9.68986
252 1 Ar 9.68986 22.6097 12.9198
253 1 Ar 9.68986 22.6097 16.1498
254 1 Ar 9.68986 22.6097 19.3797
255 1 Ar 9.68986 22.6097 22.6097
256 1 Ar 12.9198 0 0
257 1 Ar 12.9198 0 3.22995
258 1 Ar 12.9198 0 6.45991
259 1 Ar 12.9198 0 9.68986
260 1 Ar 12.9198 0 12.9198
261 1 Ar 12.9198 0 16.1498
262 1 Ar 12.9198 0 19.3797
263 1 Ar 12.9198 0 22.6097
264 1 Ar 12.9198 3.22995 0
265 1 Ar 12.9198 3.22995 3.22995
266 1 Ar 12.9198 3.22995 6.45991
267 1 Ar 12.9198 3.22995 9.68986
268 1 Ar 12.9198 3.22995 12.9198
269 1 Ar 12.9198 3.22995 16.1498
270 1 Ar 12.9198 3.22995 19.3797
271 1 Ar 12.9198 3.22995 22.6097
272 1 Ar 12.9198 6.45991 0
273 1 Ar 12.9198 6.45991 3.22995
274 1 Ar 12.9198 6.45991 6.45991
275 1 Ar 12.9198 6.45991 9.68986
276 1 Ar 12.9198 6.45991 12.9198
277 1 Ar 12.9198 6.45991 16.1498
278 1 Ar 12.9198 6.45991 19.3797
279 1 Ar 12.9198 6.45991 22.6097
280 1 Ar 12.9198 9.68986 0
281 1 Ar 12.9198 9.68986 3.22995
282 1 Ar 12.9198 9.68986 6.45991
283 1 Ar 12.9198 9.68986 9.68986
284 1 Ar 12.9198 9.68986 12.9198
285 1 Ar 12.9198 9.68986 16.1498
286 1 Ar 12.9198 9.68986 19.3797
287 1 Ar 12.9198 9.68986 22.6097
288 1 Ar 12.9198 12.9198 0
289 1 Ar 12.9198 12.9198 3.22995
290 1 Ar 12.9198 12.9198 6.45991
291 1 Ar 12.9198 12.9198 9.68986
292 1 Ar 12.9198 12.9198 12.9198
293 1 Ar 12.9198 12.9198 16.1498
294 1 Ar 12.9198 12.9198 19.3797
295 1 Ar 12.9198 12.9198 22.6097
296 1 Ar 12.9198 16.1498 0
297 1 Ar 12.9198 16.1498 3.22995
298 1 Ar 12.9198 16.1498 6.45991
299 1 Ar 12.9198 16.1498 9.68986
300 1 Ar 12.9198 16.1498 12.9198
301 1 Ar 12.9198 16.1498 16.1498
302 1 Ar 12.9198 16.1498 19.3797
303 1 Ar 12.9198 16.1498 22.6097
304 1 Ar 12.9198 19.3797 0
305 1 Ar 12.9198 19.3797 3.22995
306 1 Ar 12.9198 19.3797 6.45991
307 1 Ar 12.9198 19.3797 9.68986
308 1 Ar 12.9198 19.3797 12.9198
309 1 Ar 12.9198 19.3797 16.1498
310 1 Ar 12.9198 19.3797 19.3797
311 1 Ar 12.9198 19.3797 22.6097
312 1 Ar 12.9198 22.6097 0
313 1 Ar 12.9198 22.6097 3.22995
314 1 Ar 12.9198 22.6097 6.45991
315 1 Ar 12.9198 22.6097 9.68986
316 1 Ar 12.9198 22.6097 12.9198
317 1 Ar 12.9198 22.6097 16.1498
318 1 Ar 12.9198 22.6097 19.3797
319 1 Ar 12.9198 22.6097 22.6097
320 1 Ar 16.1498 0 0
321 1 Ar 16.1498 0 3.22995
322 1 Ar 16.1498 0 6.45991
323 1 Ar 16.1498 0 9.68986
324 1 Ar 16.1498 0 12.9198
325 1 Ar 16.1498 0 16.1498
326 1 Ar 16.1498 0 19.3797
327 1 Ar 16.1498 0 22.6097
328 1 Ar 16.1498 3.22995 0
329 1 Ar 16.1498 3.22995 3.22995
330 1 Ar 16.1498 3.22995 6.45991
331 1 Ar 16.1498 3.22995 9.68986
332 1 Ar 16.1498 3.22995 12.9198
333 1 Ar 16.1498 3.22995 16.1498
334 1 Ar 16.1498 3.22995 19.3797
335 1 Ar 16.1498 3.22995 22.6097
336 1 Ar 16.1498 6.45991 0
337 1 Ar 16.1498 6.45991 3.22995
338 1 Ar 16.1498 6.45991 6.45991
339 1 Ar 16.1498 6.45991 9.68986
340 1 Ar 16.1498 6.45991 12.9198
341 1 Ar 16.1498 6.45991 16.1498
342 1 Ar 16.1498 6.45991 19.3797
343 1 Ar 16.1498 6.45991 22.6097
344 1 Ar 16.1498 9.68986 0
345 1 Ar 16.1498 9.68986 3.22995
346 1 Ar 16.1498 9.68986 6.45991
347 1 Ar 16.1498 9.68986 9.68986
348 1 Ar 16.1498 9.68986 12.9198
349 1 Ar 16.1498 9.68986 16.1498
350 1 Ar 16.1498 9.68986 19.3797
351 1 Ar 16.1498 9.68986 22.6097
352 1 Ar 16.1498 12.9198 0
353 1 Ar 16.1498 12.9198 3.22995
354 1 Ar 16.1498 12.9198 6.45991
355 1 Ar 16.1498 12.9198 9.68986
356 1 Ar 16.1498 12.9198 12.9198
357 1 Ar 16.1498 12.9198 16.1498
358 1 Ar 16.1498 12.9198 19.3797
359 1 Ar 16.1498 12.9198 22.6097
360 1 Ar 16.1498 16.1498 0
361 1 Ar 16.1498 16.1498 3.22995
362 1 Ar 16.1498 16.1498 6.45991
363 1 Ar 16.1498 16.1498 9.68986
364 1 Ar 16.1498 16.1498 12.9198
365 1 Ar 16.1498 16.1498 16.1498
366 1 Ar 16.1498 16.1498 19.3797
367 1 Ar 16.1498 16.1498 22.6097
368 1 Ar 16.1498 19.3797 0
369 1 Ar 16.1498 19.3797 3.22995
370 1 Ar 16.1498 19.3797 6.45991
371 1 Ar 16.1498 19.3797 9.68986
372 1 Ar 16.1498 19.3797 12.9198
373 1 Ar 16.1498 19.3797 16.1498
374 1 Ar 16.1498 19.3797 19.3797
375 1 Ar 16.1498 19.3797 22.6097
376 1 Ar 16.1498 22.6097 0
377 1 Ar 16.1498 22.6097 3.22995
378 1 Ar 16.1498 22.6097 6.45991
379 1 Ar 16.1498 22.6097 9.68986
380 1 Ar 16.1498 22.6097 12.9198
381 1 Ar 16.1498 22.6097 16.1498
382 1 Ar 16.1498 22.6097 19.3797
383 1 Ar 16.1498 22.6097 22.6097
384 1 Ar 19.3797 0 0
385 1 Ar 19.3797 0 3.22995
386 1 Ar 19.3797 0 6.45991
387 1 Ar 19.3797 0 9.68986
388 1 Ar 19.3797 0 12.9198
389 1 Ar 19.3797 0 16.1498
390 1 Ar 19.3797 0 19.3797
391 1 Ar 19.3797 0 22.6097
392 1 Ar 19.3797 3.22995 0
393 1 Ar 19.3797 3.22995 3.22995
394 1 Ar 19.3797 3.22995 6.45991
395 1 Ar 19.3797 3.22995 9.68986
396 1 Ar 19.3797 3.22995 12.9198
397 1 Ar 19.3797 3.22995 16.1498
398 1 Ar 19.3797 3.22995 19.3797
399 1 Ar 19.3797 3.22995 22.6097
400 1 Ar 19.3797 6.45991 0
401 1 Ar 19.3797 6.45991 3.22995
402 1 Ar 19.3797 6.45991 6.45991
403 1 Ar 19.3797 6.45991 9.68986
404 1 Ar 19.3797 6.45991 12.9198
405 1 Ar 19.3797 6.45991 16.1498
406 1 Ar 19.3797 6.45991 19.3797
407 1 Ar 19.3797 6.45991 22.6097
408 1 Ar 19.3797 9.68986 0
409 1 Ar 19.3797 9.68986 3.22995
410 1 Ar 19.3797 9.68986 6.45991
411 1 Ar 19.3797 9.68986 9.68986
412 1 Ar 19.3797 9.68986 12.9198
413 1 Ar 19.3797 9.68986 16.1498
414 1 Ar 19.3797 9.68986 19.3797
415 1 Ar 19.3797 9.68986 22.6097
416 1 Ar 19.3797 12.9198 0
417 1 Ar 19.3797 12.9198 3.22995
418 1 Ar 19.3797 12.9198 6.45991
419 1 Ar 19.3797 12.9198 9.68986
420 1 Ar 19.3797 12.9198 12.9198
421 1 Ar 19.3797 12.9198 16.1498
422 1 Ar 19.3797 12.9198 19.3797
423 1 Ar 19.3797 12.9198 22.6097
424 1 Ar 19.3797 16.1498 0
425 1 Ar 19.3797 16.1498 3.22995
426 1 Ar 19.3797 16.1498 6.45991
427 1 Ar 19.3797 16.1498 9.68986
428 1 Ar 19.3797 16.1498 12.9198
429 1 Ar 19.3797 16.1498 16.1498
430 1 Ar 19.3797 16.1498 19.3797
431 1 Ar 19.3797 16.1498 22.6097
432 1 Ar 19.3797 19.3797 0
433 1 Ar 19.3797 19.3797 3.22995
434 1 Ar 19.3797 19.3797 6.45991
435 1 Ar 19.3797 19.3797 9.68986
436 1 Ar 19.3797 19.3797 12.9198
437 1 Ar 19.3797 19.3797 16.1498
438 1 Ar 19.3797 19.3797 19.3797
439 1 Ar 19.3797 19.3797 22.6097
440 1 Ar 19.3797 22.6097 0
441 1 Ar 19.3797 22.6097 3.22995
442 1 Ar 19.3797 22.6097 6.45991
443 1 Ar 19.3797 22.6097 9.68986
444 1 Ar 19.3797 22.6097 12.9198
445 1 Ar 19.3797 22.6097 16.1498
446 1 Ar 19.3797 22.6097 19.3797
447 1 Ar 19.3797 22.6097 22.6097
448 1 Ar 22.6097 0 0
449 1 Ar 22.6097 0 3.22995
450 1 Ar 22.6097 0 6.45991
451 1 Ar 22.6097 0 9.68986
452 1 Ar 22.6097 0 12.9198
453 1 Ar 22.6097 0 16.1498
454 1 Ar 22.6097 0 19.3797
455 1 Ar 22.6097 0 22.6097
456 1 Ar 22.6097 3.22995 0
457 1 Ar 22.6097 3.22995 3.22995
458 1 Ar 22.6097 3.22995 6.45991
459 1 Ar 22.6097 3.22995 9.68986
460 1 Ar 22.6097 3.22995 12.9198
461 1 Ar 22.6097 3.22995 16.1498
462 1 Ar 22.6097 3.22995 19.3797
463 1 Ar 22.6097 3.22995 22.6097
464 1 Ar 22.6097 6.45991 0
465 1 Ar 22.6097 6.45991 3.22995
466 1 Ar 22.6097 6.45991 6.45991
467 1 Ar 22.6097 6.45991 9.68986
468 1 Ar 22.6097 6.45991 12.9198
469 1 Ar 22.6097 6.45991 16.1498
470 1 Ar 22.6097 6.45991 19.3797
471 1 Ar 22.6097 6.45991 22.6097
472 1 Ar 22.6097 9.68986 0
473 1 Ar 22.6097 9.68986 3.22995
474 1 Ar 22.6097 9.68986 6.45991
475 1 Ar 22.6097 9.68986 9.68986
476 1 Ar 22.6097 9.68986 12.9198
477 1 Ar 22.6097 9.68986 16.1498
478 1 Ar 22.6097 9.68986 19.3797
479 1 Ar 22.6097 9.68986 22.6097
480 1 Ar 22.6097 12.9198 0
481 1 Ar 22.6097 12.9198 3.22995
482 1 Ar 22.6097 12.9198 6.45991
483 1 Ar 22.6097 12.9198 9.68986
484 1 Ar 22.6097 12.9198 12.9198
485 1 Ar 22.6097 12.9198 16.1498
486 1 Ar 22.6097 12.9198 19.3797
487 1 Ar 22.6097 12.9198 22.6097
488 1 Ar 22.6097 16.1498 0
489 1 Ar 22.6097 16.1498 3.22995
490 1 Ar 22.6097 16.1498 6.45991
491 1 Ar 22.6097 16.1498 9.68986
492 1 Ar 22.6097 16.1498 12.9198
493 1 Ar 22.6097 16.1498 16.1498
494 1 Ar 22.6097 16.1498 19.3797
495 1 Ar 22.6097 16.1498 22.6097
496 1 Ar 22.6097 19.3797 0
497 1 Ar 22.6097 19.3797 3.22995
498 1 Ar 22.6097 19.3797 6.45991
499 1 Ar 22.6097 19.3797 9.68986
ITEM: TIMESTEP
19999
ITEM: NUMBER OF ATOMS
500
ITEM: BOX BOUNDS pp pp pp
0 29.0696
0 29.0696
0 29.0696
ITEM: ATOMS id type element xu yu zu
0 1 Ar 26.6992 0.419341 27.3968
1 1 Ar 27.8219 28.7514 2.68709
2 1 Ar 28.6024 0.00894337 6.38264
3 1 Ar 28.14 28.5117 9.76429
4 1 Ar 28.6692 27.7779 13.6005
5 1 Ar 27.6543 0.668033 16.4212
6 1 Ar 28.9641 28.4957 19.5853
7 1 Ar 28.6761 28.5659 23.2566
8 1 Ar 28.2023 4.00078 28.4294
9 1 Ar 27.6067 3.57529 2.96635
10 1 Ar 28.1161 3.3532 6.61515
11 1 Ar 28.3036 3.40548 10.007
12 1 Ar 28.6068 2.28449 13.1019
13 1 Ar 26.7029 4.07532 15.7231
14 1 Ar 28.6676 2.96986 20.4721
15 1 Ar 27.3844 2.88119 24.1715
16 1 Ar 0.88659 6.81115 26.9856
17 1 Ar 0.102998 6.69807 1.44191
18 1 Ar 28.4334 6.46004 5.26701
19 1 Ar 28.9019 6.53134 8.94637
20 1 Ar 27.9668 6.00437 12.6098
21 1 Ar 0.465685 6.22137 15.8246
22 1 Ar 27.774 6.50556 18.9194
23 1 Ar 28.3337 6.66421 22.768
24 1 Ar 28.4578 9.67494 29.0111
25 1 Ar 28.1754 9.91284 3.47701
26 1 Ar 0.0238021 9.71551 6.88217
27 1 Ar 27.6797 9.72128 10.1131
28 1 Ar 28.8209 8.97365 13.1291
29 1 Ar 28.6006 9.55872 16.6204
30 1 Ar 28.4047 9.57231 20.229
31 1 Ar 28.1222 9.87688 23.7259
32 1 Ar 28.4317 13.4457 28.1496
33 1 Ar 28.8219 13.2595 2.38907
34 1 Ar 28.1386 13.2428 5.9459
35 1 Ar 28.6436 12.7512 9.20366
36 1 Ar 28.0578 12.5021 12.6518
37 1 Ar 0.0896943 13.1211 15.7395
38 1 Ar 28.2168 13.1601 19.047
39 1 Ar 28.7235 13.2986 22.7036
40 1 Ar 26.5414 16.0227 0.0259658
41 1 Ar 28.9517 16.5048 3.55559
42 1 Ar 28.6258 16.1257 7.53249
43 1 Ar 26.6309 15.4235 10.0521
44 1 Ar 28.6027 16.2796 13.2424
45 1 Ar 28.9416 16.9323 16.8549
46 1 Ar 28.2544 16.2748 20.4714
47 1 Ar 28.7731 16.3635 24.2669
48 1 Ar 28.5955 19.4331 27.6566
49 1 Ar 27.9768 19.9176 3.14836
50 1 Ar 28.1042 19.5318 6.33875
51 1 Ar 0.143907 18.2526 10.1016
52 1 Ar 28.7774 20.5684 12.7199
53 1 Ar 28.7691 20.3937 16.6918
54 1 Ar 26.913 20.1279 19.2754
55 1 Ar 28.1416 19.7726 22.4828
56 1 Ar 27.6156 23.4711 28.1214
57 1 Ar 28.1009 23.124 2.75939
58 1 Ar 28.0876 23.3897 6.09762
59 1 Ar 28.5166 22.5953 9.95076
60 1 Ar 26.9158 22.8813 13.9005
61 1 Ar 28.2815 24.0011 17.2172
62 1 Ar 28.908 23.037 20.8534
63 1 Ar 28.2814 22.5624 24.693
64 1 Ar 2.32263 27.9478 27.5691
65 1 Ar 3.13574 28.6066 1.80126
66 1 Ar 3.41455 28.412 6.34171
67 1 Ar 2.25481 27.8093 9.65486
68 1 Ar 3.46084 29.0624 12.8044
69 1 Ar 2.18806 28.4046 15.6883
70 1 Ar 3.4844 28.0635 19.3495
71 1 Ar 3.25909 28.6988 23.6738
72 1 Ar 2.54264 2.24857 28.2347
73 1 Ar 2.98558 3.16129 2.72883
74 1 Ar 2.30019 3.17287 6.46437
75 1 Ar 2.75964 2.72122 9.81799
76 1 Ar 3.10999 3.32206 13.1309
77 1 Ar 2.78727 2.96765 16.4414
78 1 Ar 2.84898 2.73092 19.8056
79 1 Ar 2.79961 3.07157 23.1049
80 1 Ar 3.37223 6.06472 0.0126666
81 1 Ar 3.38378 6.32163 3.50736
82 1 Ar 2.32409 6.27496 6.42529
83 1 Ar 3.38051 5.94053 9.57566
84 1 Ar 2.53954 6.62094 12.5717
85 1 Ar 3.85508 6.31753 15.9362
86 1 Ar 3.07949 6.40532 19.6235
87 1 Ar 2.59929 6.48718 23.1306
88 1 Ar 3.4867 9.62698 27.3721
89 1 Ar 3.04897 9.58123 2.27113
90 1 Ar 3.38456 9.34385 5.63184
91 1 Ar 2.57476 9.73535 8.99959
92 1 Ar 3.5155 9.99435 13.1271
93 1 Ar 3.02407 9.53958 16.596
94 1 Ar 3.15462 9.61192 19.833
95 1 Ar 2.96662 9.74059 23.2532
96 1 Ar 2.51148 12.4637 0.189059
97 1 Ar 3.21686 13.0932 3.39278
98 1 Ar 2.78918 12.5434 6.47025
99 1 Ar 3.01999 12.9119 10.098
100 1 Ar 2.32147 13.1326 13.3153
101 1 Ar 3.18393 12.7625 16.7608
102 1 Ar 2.50581 12.896 20.2028
103 1 Ar 2.93061 13.1501 23.5603
104 1 Ar 2.22837 16.1505 28.61
105 1 Ar 3.22978 16.4938 2.53663
106 1 Ar 2.82614 15.8603 6.0357
107 1 Ar 2.84186 15.9495 9.39477
108 1 Ar 3.11937 16.3836 12.605
109 1 Ar 3.06923 16.2957 15.9439
110 1 Ar 2.86063 16.1628 19.1734
111 1 Ar 2.61683 16.5546 22.526
112 1 Ar 3.5142 19.0325 26.9311
113 1 Ar 2.56967 19.7223 2.11781
114 1 Ar 2.40306 19.4727 5.97714
115 1 Ar 3.47068 19.2286 9.5151
116 1 Ar 3.51823 19.5497 13.2308
117 1 Ar 3.24273 19.4073 16.3881
118 1 Ar 1.74392 19.5822 19.7907
119 1 Ar 2.81153 19.8686 23.2384
120 1 Ar 3.16316 22.554 28.5312
121 1 Ar 2.71632 22.6436 3.67029
122 1 Ar 2.51837 24.0019 6.73349
123 1 Ar 3.10023 22.4801 9.69109
124 1 Ar 2.50693 22.8782 12.7367
125 1 Ar 2.82697 23.8763 16.4296
126 1 Ar 3.23648 22.5171 20.13
127 1 Ar 2.46961 23.4869 24.5659
128 1 Ar 6.12295 27.455 27.6495
129 1 Ar 6.31382 27.4493 3.13061
130 1 Ar 6.83247 29.0644 6.4903
131 1 Ar 6.09023 28.0138 9.93473
132 1 Ar 6.20762 27.5882 13.3991
133 1 Ar 6.24481 28.6066 16.6762
134 1 Ar 6.67462 26.9124 20.0857
135 1 Ar 6.68991 28.4974 23.8924
136 1 Ar 5.92458 3.89849 28.5664
137 1 Ar 6.31871 1.8415 3.23372
138 1 Ar 5.85976 3.51091 6.52732
139 1 Ar 6.09284 2.63713 9.80449
140 1 Ar 6.40932 3.00172 12.958
141 1 Ar 6.09827 2.81539 17.0084
142 1 Ar 5.97362 1.82117 20.3121
143 1 Ar 6.53257 3.70343 23.9909
144 1 Ar 6.82854 6.95008 29.0265
145 1 Ar 6.71088 5.70994 3.62297
146 1 Ar 5.72057 6.86426 6.62798
147 1 Ar 6.65275 5.99696 9.57762
148 1 Ar 5.97698 6.60835 12.7826
149 1 Ar 7.11965 6.08926 16.2079
150 1 Ar 6.20811 5.27133 20.0303
151 1 Ar 5.91034 6.85941 23.5323
152 1 Ar 6.46026 10.1368 28.8227
153 1 Ar 6.47656 8.97665 3.18016
154 1 Ar 6.49516 10.1525 6.25194
155 1 Ar 5.82232 9.4675 9.34258
156 1 Ar 7.0358 9.66673 12.3843
157 1 Ar 6.18537 9.58668 15.852
158 1 Ar 6.35703 9.24462 19.1517
159 1 Ar 6.28198 10.232 22.4617
160 1 Ar 7.19656 13.0582 27.2456
161 1 Ar 6.66479 12.8325 2.22965
162 1 Ar 6.33474 13.2508 6.12079
163 1 Ar 6.83916 13.1364 9.35054
164 1 Ar 5.8771 12.533 13.4582
165 1 Ar 6.30828 12.9391 16.7922
166 1 Ar 6.24632 12.6771 20.308
167 1 Ar 6.21116 13.6547 24.134
168 1 Ar 6.4503 16.2755 28.9224
169 1 Ar 6.44741 16.384 3.12465
170 1 Ar 6.09641 16.2845 6.3569
171 1 Ar 6.04328 16.8393 9.44084
172 1 Ar 6.34249 15.9699 12.6854
173 1 Ar 6.46193 16.6819 16.0112
174 1 Ar 6.42635 16.0044 19.1513
175 1 Ar 5.89975 16.9238 23.0632
176 1 Ar 6.39101 20.3525 28.6261
177 1 Ar 6.37827 19.9565 2.78928
178 1 Ar 5.8057 19.6221 6.21076
179 1 Ar 6.39675 20.8235 9.73387
180 1 Ar 6.73777 19.503 13.0413
181 1 Ar 6.41272 20.4142 16.5582
182 1 Ar 5.31633 19.4267 19.6673
183 1 Ar 6.56127 20.6684 23.3392
184 1 Ar 6.46104 24.1222 28.965
185 1 Ar 6.31366 23.1442 3.54699
186 1 Ar 5.81077 23.1236 7.27447
187 1 Ar 5.92342 24.5119 10.4527
188 1 Ar 6.15313 23.0447 13.358
189 1 Ar 6.12082 23.8845 16.6606
190 1 Ar 6.49728 22.8076 19.8653
191 1 Ar 6.0333 23.9573 23.8054
192 1 Ar 9.4887 27.6868 28.1733
193 1 Ar 9.27175 0.0736651 2.56811
194 1 Ar 9.8682 28.2665 6.24483
195 1 Ar 9.73069 28.49 9.36676
196 1 Ar 9.8424 28.5679 12.8505
197 1 Ar 9.91486 28.1984 16.2553
198 1 Ar 9.8129 28.733 19.7372
199 1 Ar 9.86639 28.9414 24.6407
200 1 Ar 9.86473 2.95068 29.0102
201 1 Ar 9.67929 3.21376 3.28097
202 1 Ar 9.69499 3.13307 6.54732
203 1 Ar 9.24761 3.02212 9.97999
204 1 Ar 10.0248 3.12673 13.1118
205 1 Ar 9.4097 3.62114 16.6545
206 1 Ar 9.34685 3.2217 20.2401
207 1 Ar 9.97261 3.26621 23.4947
208 1 Ar 9.72607 6.36237 27.4883
209 1 Ar 9.806 6.39543 2.72367
210 1 Ar 8.90876 6.72966 6.226
211 1 Ar 10.0412 6.1203 9.51092
212 1 Ar 9.71934 6.33551 12.7317
213 1 Ar 10.1996 6.74824 15.8421
214 1 Ar 9.36471 6.69681 19.1926
215 1 Ar 9.05365 6.42874 22.9678
216 1 Ar 9.41508 10.2293 26.6265
217 1 Ar 9.63073 9.6138 2.70068
218 1 Ar 9.71352 9.92789 6.30401
219 1 Ar 8.93624 9.33596 9.47764
220 1 Ar 10.3372 9.7815 12.6039
221 1 Ar 9.51904 9.80732 16.0491
222 1 Ar 9.5722 10.0812 19.4712
223 1 Ar 9.90138 9.65114 22.8816
224 1 Ar 9.82826 12.4738 0.349463
225 1 Ar 9.45904 12.8537 3.75257
226 1 Ar 9.89906 13.2264 7.06885
227 1 Ar 10.062 12.3888 10.2776
228 1 Ar 9.71851 12.7353 13.6532
229 1 Ar 9.71229 12.9079 17.0234
230 1 Ar 9.67541 13.1526 20.5114
231 1 Ar 9.70191 13.228 23.9545
232 1 Ar 9.71013 15.4387 27.364
233 1 Ar 9.63853 15.7132 1.71103
234 1 Ar 9.36111 16.3461 6.28073
235 1 Ar 9.34046 15.8311 9.79612
236 1 Ar 9.57703 15.937 12.9721
237 1 Ar 9.58077 15.988 16.1675
238 1 Ar 9.92214 16.4406 19.6236
239 1 Ar 9.21797 16.5055 23.4167
240 1 Ar 9.69562 18.8414 28.0099
241 1 Ar 9.80389 19.3703 2.85977
242 1 Ar 8.98847 20.4243 6.12435
243 1 Ar 10.0858 19.1796 9.0387
244 1 Ar 9.88216 19.0954 12.4929
245 1 Ar 9.81163 19.4309 16.3325
246 1 Ar 9.5716 19.9544 20.0972
247 1 Ar 9.994 20.0076 23.7888
248 1 Ar 9.51228 22.1066 28.7337
249 1 Ar 10.1497 22.5086 3.1569
250 1 Ar 9.1041 24.8023 6.11923
251 1 Ar 9.0666 22.9175 9.54729
252 1 Ar 9.61764 22.5244 12.6416
253 1 Ar 9.21677 23.0459 15.9524
254 1 Ar 9.71845 23.2374 19.5719
255 1 Ar 9.96875 23.9877 23.789
256 1 Ar 13.0897 28.6498 27.0808
257 1 Ar 12.43 28.6926 1.67806
258 1 Ar 12.9666 27.8958 5.45215
259 1 Ar 13.0131 27.8238 9.24677
260 1 Ar 13.2187 27.0743 13.2863
261 1 Ar 13.0826 29.0449 16.1243
262 1 Ar 13.2808 28.6633 19.5424
263 1 Ar 12.5858 28.3419 22.9303
264 1 Ar 13.2094 2.83452 28.62
265 1 Ar 13.0998 3.05093 2.77561
266 1 Ar 13.0091 2.6448 6.16915
267 1 Ar 12.645 2.6665 9.41092
268 1 Ar 13.0234 1.76848 12.8355
269 1 Ar 12.524 3.29827 15.6496
270 1 Ar 12.5874 2.76248 19.0483
271 1 Ar 13.7066 3.06594 22.6467
272 1 Ar 13.0901 6.35702 28.5266
273 1 Ar 13.1132 6.31218 2.76362
274 1 Ar 12.1044 6.09234 5.8645
275 1 Ar 13.3959 6.29809 9.5714
276 1 Ar 13.0835 5.68308 12.9921
277 1 Ar 13.2387 6.26706 16.2252
278 1 Ar 12.8283 6.33084 19.3515
279 1 Ar 12.8522 6.50078 22.7544
280 1 Ar 13.6662 9.70017 28.9075
281 1 Ar 13.0861 9.4648 2.9651
282 1 Ar 12.8961 9.08364 6.13835
283 1 Ar 12.3901 9.87701 9.41858
284 1 Ar 13.5436 9.62663 12.564
285 1 Ar 12.8076 9.49308 15.8677
286 1 Ar 12.907 9.68626 19.8261
287 1 Ar 13.0475 9.89454 24.1672
288 1 Ar 12.9027 13.2521 28.689
289 1 Ar 12.8907 12.9738 2.90365
290 1 Ar 13.1322 12.0757 6.41699
291 1 Ar 13.0169 13.0964 9.51319
292 1 Ar 12.9727 12.835 12.6505
293 1 Ar 13.2162 12.9069 15.9406
294 1 Ar 12.6576 12.9973 19.1941
295 1 Ar 13.0575 12.7424 22.697
296 1 Ar 12.9783 16.521 27.7934
297 1 Ar 12.5869 16.196 3.12759
298 1 Ar 12.8271 15.2038 6.28169
299 1 Ar 13.3077 16.3888 9.57991
300 1 Ar 13.1421 16.543 12.7581
301 1 Ar 12.7282 16.0539 16.0834
302 1 Ar 13.2886 16.5018 19.5758
303 1 Ar 13.5964 16.2502 23.1897
304 1 Ar 12.5153 19.3691 0.256071
305 1 Ar 13.0327 19.7271 3.4534
306 1 Ar 12.5605 18.6767 6.6204
307 1 Ar 13.4127 20.2091 9.37322
308 1 Ar 13.0049 20.0555 12.7965
309 1 Ar 13.1204 19.4374 16.171
310 1 Ar 12.7256 19.7642 19.3563
311 1 Ar 13.1133 19.4663 22.5566
312 1 Ar 12.865 22.6083 27.1289
313 1 Ar 13.2337 22.436 1.56345
314 1 Ar 12.4229 22.4807 6.88824
315 1 Ar 13.7755 24.3056 9.45342
316 1 Ar 13.0122 23.4087 13.1539
317 1 Ar 12.3982 23.2205 16.5151
318 1 Ar 13.3773 22.9462 19.6858
319 1 Ar 13.322 23.3572 23.5694
320 1 Ar 15.8953 27.3651 0.154127
321 1 Ar 15.6915 0.742075 3.34282
322 1 Ar 16.5146 27.8938 6.36208
323 1 Ar 16.1067 28.1654 10.0733
324 1 Ar 16.4245 28.6477 13.2825
325 1 Ar 16.1541 27.6083 16.315
326 1 Ar 16.6374 0.168238 19.5052
327 1 Ar 16.2228 27.9416 22.7274
328 1 Ar 16.6498 2.56757 27.7248
329 1 Ar 16.9226 3.56758 2.47602
330 1 Ar 16.0542 2.53245 6.8011
331 1 Ar 15.7449 3.01535 10.0779
332 1 Ar 16.2274 3.41176 13.3439
333 1 Ar 16.0692 2.67655 16.6319
334 1 Ar 16.0592 3.23677 19.9436
335 1 Ar 16.5414 2.91881 24.0499
336 1 Ar 16.3552 5.90634 28.8914
337 1 Ar 16.2423 6.81591 3.28476
338 1 Ar 15.6018 5.91257 6.2973
339 1 Ar 16.6888 6.19333 9.28696
340 1 Ar 16.2101 6.81636 12.5736
341 1 Ar 16.6425 5.82414 16.5664
342 1 Ar 16.2652 6.44938 20.0203
343 1 Ar 16.0394 6.60476 23.3828
344 1 Ar 16.9381 9.08638 0.0340068
345 1 Ar 16.7164 9.85793 3.62936
346 1 Ar 16.3072 9.8114 6.74344
347 1 Ar 16.1756 9.48192 10.0122
348 1 Ar 16.4678 10.2428 13.3354
349 1 Ar 15.9469 9.34344 16.6597
350 1 Ar 16.4386 9.87605 19.962
351 1 Ar 16.7146 10.1415 23.6828
352 1 Ar 16.2783 12.5331 28.8998
353 1 Ar 16.3638 13.2492 2.99026
354 1 Ar 16.6221 13.1784 6.30679
355 1 Ar 16.781 12.5465 9.26157
356 1 Ar 16.2912 13.5859 12.0668
357 1 Ar 16.3466 12.5019 15.4737
358 1 Ar 16.5081 13.2089 19.3005
359 1 Ar 16.2325 13.2937 22.9751
360 1 Ar 16.2224 15.8971 0.195678
361 1 Ar 16.5741 16.2447 3.64443
362 1 Ar 15.7238 16.6089 6.62362
363 1 Ar 16.9479 16.0316 9.827
364 1 Ar 16.3827 16.8187 13.397
365 1 Ar 16.1521 15.9069 16.9503
366 1 Ar 16.3403 16.5863 20.6935
367 1 Ar 16.6647 16.7622 24.8615
368 1 Ar 16.2194 18.9864 28.0834
369 1 Ar 16.7467 19.4122 2.90654
370 1 Ar 15.5871 20.3216 6.72245
371 1 Ar 16.5048 19.3944 9.73841
372 1 Ar 17.1262 20.4559 13.1646
373 1 Ar 16.5508 19.3548 16.3251
374 1 Ar 16.0373 19.8398 19.4698
375 1 Ar 16.4166 19.9825 23.2277
376 1 Ar 16.3079 23.0869 27.6163
377 1 Ar 16.8117 23.1331 2.34416
378 1 Ar 16.168 24.009 5.75884
379 1 Ar 17.1392 22.5642 9.86244
380 1 Ar 16.3084 23.9523 12.9579
381 1 Ar 15.7295 23.9932 17.4472
382 1 Ar 16.6611 22.9936 20.444
383 1 Ar 16.674 24.131 23.6092
384 1 Ar 19.3474 28.772 28.4164
385 1 Ar 19.0533 28.8351 3.00876
386 1 Ar 19.8579 28.0157 6.51015
387 1 Ar 19.1098 0.444613 9.65203
388 1 Ar 19.7652 27.3843 12.4036
389 1 Ar 19.3466 28.4748 16.0134
390 1 Ar 20.0791 0.325336 19.5436
391 1 Ar 19.7695 27.6276 22.4487
392 1 Ar 20.7219 2.92009 28.4242
393 1 Ar 20.0498 2.69936 3.40785
394 1 Ar 19.6789 2.64882 6.83592
395 1 Ar 19.1211 3.70009 10.2533
396 1 Ar 19.8991 2.41351 13.3251
397 1 Ar 20.4263 2.68471 16.5878
398 1 Ar 19.2532 3.73865 20.1593
399 1 Ar 19.7925 2.42002 23.0473
400 1 Ar 20.5337 6.45582 28.6486
401 1 Ar 20.0327 6.28575 3.02359
402 1 Ar 19.0822 5.71218 6.30647
403 1 Ar 20.0153 6.80011 9.16795
404 1 Ar 20.3402 6.26583 12.9138
405 1 Ar 20.0899 6.18536 16.1796
406 1 Ar 19.5404 6.98888 19.2486
407 1 Ar 19.3613 5.42761 23.6535
408 1 Ar 20.0232 9.58957 27.145
409 1 Ar 19.9645 9.57919 2.31679
410 1 Ar 20.0077 9.19948 5.97512
411 1 Ar 19.3621 10.2657 9.39356
412 1 Ar 19.4313 9.21304 12.473
413 1 Ar 19.898 10.0898 16.2028
414 1 Ar 19.8687 10.4397 19.7766
415 1 Ar 20.287 9.38944 23.5433
416 1 Ar 19.5915 12.6545 28.7376
417 1 Ar 19.8648 12.8863 3.1347
418 1 Ar 19.8447 12.513 6.56053
419 1 Ar 20.0975 13.3319 9.81679
420 1 Ar 19.211 12.3183 12.9034
421 1 Ar 19.3698 13.5632 15.9064
422 1 Ar 19.9669 13.473 19.0471
423 1 Ar 19.4393 12.6873 22.5678
424 1 Ar 19.6092 16.2223 27.9863
425 1 Ar 19.8288 16.2185 2.43364
426 1 Ar 19.285 15.8811 5.91658
427 1 Ar 20.1535 16.6086 9.18649
428 1 Ar 20.0634 16.397 12.7699
429 1 Ar 19.4697 16.6468 16.718
430 1 Ar 19.5589 16.607 20.0528
431 1 Ar 20.0174 16.0049 23.364
432 1 Ar 19.259 20.2425 28.5573
433 1 Ar 19.7762 19.9661 3.47101
434 1 Ar 19.2416 19.1586 7.16942
435 1 Ar 20.0283 20.3613 10.0892
436 1 Ar 21.658 19.405 13.2053
437 1 Ar 20.3449 19.8001 16.286
438 1 Ar 19.5666 19.8232 19.8923
439 1 Ar 19.8985 19.281 23.8549
440 1 Ar 19.4152 24.0192 28.8941
441 1 Ar 20.21 23.7335 3.11979
442 1 Ar 19.6259 22.3696 6.05137
443 1 Ar 20.7363 23.7618 9.65391
444 1 Ar 20.1541 23.1364 12.9873