ITEM: TIMESTEP
-1
ITEM: NUMBER OF ATOMS
500
ITEM: BOX BOUNDS pp pp pp
0 30.3927
0 30.3927
0 30.3927
ITEM: ATOMS id type element xu yu zu
0 1 Ar 0 0 0
1 1 Ar 0 0 3.37697
2 1 Ar 0 0 6.75394
3 1 Ar 0 0 10.1309
4 1 Ar 0 0 13.5079
5 1 Ar 0 0 16.8848
6 1 Ar 0 0 20.2618
7 1 Ar 0 0 23.6388
8 1 Ar 0 3.37697 0
9 1 Ar 0 3.37697 3.37697
10 1 Ar 0 3.37697 6.75394
11 1 Ar 0 3.37697 10.1309
12 1 Ar 0 3.37697 13.5079
13 1 Ar 0 3.37697 16.8848
14 1 Ar 0 3.37697 20.2618
15 1 Ar 0 3.37697 23.6388
16 1 Ar 0 6.75394 0
17 1 Ar 0 6.75394 3.37697
18 1 Ar 0 6.75394 6.75394
19 1 Ar 0 6.75394 10.1309
20 1 Ar 0 6.75394 13.5079
21 1 Ar 0 6.75394 16.8848
22 1 Ar 0 6.75394 20.2618
23 1 Ar 0 6.75394 23.6388
24 1 Ar 0 10.1309 0
25 1 Ar 0 10.1309 3.37697
26 1 Ar 0 10.1309 6.75394
27 1 Ar 0 10.1309 10.1309
28 1 Ar 0 10.1309 13.5079
29 1 Ar 0 10.1309 16.8848
30 1 Ar 0 10.1309 20.2618
31 1 Ar 0 10.1309 23.6388
32 1 Ar 0 13.5079 0
33 1 Ar 0 13.5079 3.37697
34 1 Ar 0 13.5079 6.75394
35 1 Ar 0 13.5079 10.1309
36 1 Ar 0 13.5079 13.5079
37 1 Ar 0 13.5079 16.8848
38 1 Ar 0 13.5079 20.2618
39 1 Ar 0 13.5079 23.6388
40 1 Ar 0 16.8848 0
41 1 Ar 0 16.8848 3.37697
42 1 Ar 0 16.8848 6.75394
43 1 Ar 0 16.8848 10.1309
44 1 Ar 0 16.8848 13.5079
45 1 Ar 0 16.8848 16.8848
46 1 Ar 0 16.8848 20.2618
47 1 Ar 0 16.8848 23.6388
48 1 Ar 0 20.2618 0
49 1 Ar 0 20.2618 3.37697
50 1 Ar 0 20.2618 6.75394
51 1 Ar 0 20.2618 10.1309
52 1 Ar 0 20.2618 13.5079
53 1 Ar 0 20.2618 16.8848
54 1 Ar 0 20.2618 20.2618
55 1 Ar 0 20.2618 23.6388
56 1 Ar 0 23.6388 0
57 1 Ar 0 23.6388 3.37697
58 1 Ar 0 23.6388 6.75394
59 1 Ar 0 23.6388 10.1309
60 1 Ar 0 23.6388 13.5079
61 1 Ar 0 23.6388 16.8848
62 1 Ar 0 23.6388 20.2618
63 1 Ar 0 23.6388 23.6388
64 1 Ar 3.37697 0 0
65 1 Ar 3.37697 0 3.37697
66 1 Ar 3.37697 0 6.75394
67 1 Ar 3.37697 0 10.1309
68 1 Ar 3.37697 0 13.5079
69 1 Ar 3.37697 0 16.8848
70 1 Ar 3.37697 0 20.2618
71 1 Ar 3.37697 0 23.6388
72 1 Ar 3.37697 3.37697 0
73 1 Ar 3.37697 3.37697 3.37697
74 1 Ar 3.37697 3.37697 6.75394
75 1 Ar 3.37697 3.37697 10.1309
76 1 Ar 3.37697 3.37697 13.5079
77 1 Ar 3.37697 3.37697 16.8848
78 1 Ar 3.37697 3.37697 20.2618
79 1 Ar 3.37697 3.37697 23.6388
80 1 Ar 3.37697 6.75394 0
81 1 Ar 3.37697 6.75394 3.37697
82 1 Ar 3.37697 6.75394 6.75394
83 1 Ar 3.37697 6.75394 10.1309
84 1 Ar 3.37697 6.75394 13.5079
85 1 Ar 3.37697 6.75394 16.8848
86 1 Ar 3.37697 6.75394 20.2618
87 1 Ar 3.37697 6.75394 23.6388
88 1 Ar 3.37697 10.1309 0
89 1 Ar 3.37697 10.1309 3.37697
90 1 Ar 3.37697 10.1309 6.75394
91 1 Ar 3.37697 10.1309 10.1309
92 1 Ar 3.37697 10.1309 13.5079
93 1 Ar 3.37697 10.1309 16.8848
94 1 Ar 3.37697 10.1309 20.2618
95 1 Ar 3.37697 10.1309 23.6388
96 1 Ar 3.37697 13.5079 0
97 1 Ar 3.37697 13.5079 3.37697
98 1 Ar 3.37697 13.5079 6.75394
99 1 Ar 3.37697 13.5079 10.1309
100 1 Ar 3.37697 13.5079 13.5079
101 1 Ar 3.37697 13.5079 16.8848
102 1 Ar 3.37697 13.5079 20.2618
103 1 Ar 3.37697 13.5079 23.6388
104 1 Ar 3.37697 16.8848 0
105 1 Ar 3.37697 16.8848 3.37697
106 1 Ar 3.37697 16.8848 6.75394
107 1 Ar 3.37697 16.8848 10.1309
108 1 Ar 3.37697 16.8848 13.5079
109 1 Ar 3.37697 16.8848 16.8848
110 1 Ar 3.37697 16.8848 20.2618
111 1 Ar 3.37697 16.8848 23.6388
112 1 Ar 3.37697 20.2618 0
113 1 Ar 3.37697 20.2618 3.37697
114 1 Ar 3.37697 20.2618 6.75394
115 1 Ar 3.37697 20.2618 10.1309
116 1 Ar 3.37697 20.2618 13.5079
117 1 Ar 3.37697 20.2618 16.8848
118 1 Ar 3.37697 20.2618 20.2618
119 1 Ar 3.37697 20.2618 23.6388
120 1 Ar 3.37697 23.6388 0
121 1 Ar 3.37697 23.6388 3.37697
122 1 Ar 3.37697 23.6388 6.75394
123 1 Ar 3.37697 23.6388 10.1309
124 1 Ar 3.37697 23.6388 13.5079
125 1 Ar 3.37697 23.6388 16.8848
126 1 Ar 3.37697 23.6388 20.2618
127 1 Ar 3.37697 23.6388 23.6388
128 1 Ar 6.75394 0 0
129 1 Ar 6.75394 0 3.37697
130 1 Ar 6.75394 0 6.75394
131 1 Ar 6.75394 0 10.1309
132 1 Ar 6.75394 0 13.5079
133 1 Ar 6.75394 0 16.8848
134 1 Ar 6.75394 0 20.2618
135 1 Ar 6.75394 0 23.6388
136 1 Ar 6.75394 3.37697 0
137 1 Ar 6.75394 3.37697 3.37697
138 1 Ar 6.75394 3.37697 6.75394
139 1 Ar 6.75394 3.37697 10.1309
140 1 Ar 6.75394 3.37697 13.5079
141 1 Ar 6.75394 3.37697 16.8848
142 1 Ar 6.75394 3.37697 20.2618
143 1 Ar 6.75394 3.37697 23.6388
144 1 Ar 6.75394 6.75394 0
145 1 Ar 6.75394 6.75394 3.37697
146 1 Ar 6.75394 6.75394 6.75394
147 1 Ar 6.75394 6.75394 10.1309
148 1 Ar 6.75394 6.75394 13.5079
149 1 Ar 6.75394 6.75394 16.8848
150 1 Ar 6.75394 6.75394 20.2618
151 1 Ar 6.75394 6.75394 23.6388
152 1 Ar 6.75394 10.1309 0
153 1 Ar 6.75394 10.1309 3.37697
154 1 Ar 6.75394 10.1309 6.75394
155 1 Ar 6.75394 10.1309 10.1309
156 1 Ar 6.75394 10.1309 13.5079
157 1 Ar 6.75394 10.1309 16.8848
158 1 Ar 6.75394 10.1309 20.2618
159 1 Ar 6.75394 10.1309 23.6388
160 1 Ar 6.75394 13.5079 0
161 1 Ar 6.75394 13.5079 3.37697
162 1 Ar 6.75394 13.5079 6.75394
163 1 Ar 6.75394 13.5079 10.1309
164 1 Ar 6.75394 13.5079 13.5079
165 1 Ar 6.75394 13.5079 16.8848
166 1 Ar 6.75394 13.5079 20.2618
167 1 Ar 6.75394 13.5079 23.6388
168 1 Ar 6.75394 16.8848 0
169 1 Ar 6.75394 16.8848 3.37697
170 1 Ar 6.75394 16.8848 6.75394
171 1 Ar 6.75394 16.8848 10.1309
172 1 Ar 6.75394 16.8848 13.5079
173 1 Ar 6.75394 16.8848 16.8848
174 1 Ar 6.75394 16.8848 20.2618
175 1 Ar 6.75394 16.8848 23.6388
176 1 Ar 6.75394 20.2618 0
177 1 Ar 6.75394 20.2618 3.37697
178 1 Ar 6.75394 20.2618 6.75394
179 1 Ar 6.75394 20.2618 10.1309
180 1 Ar 6.75394 20.2618 13.5079
181 1 Ar 6.75394 20.2618 16.8848
182 1 Ar 6.75394 20.2618 20.2618
183 1 Ar 6.75394 20.2618 23.6388
184 1 Ar 6.75394 23.6388 0
185 1 Ar 6.75394 23.6388 3.37697
186 1 Ar 6.75394 23.6388 6.75394
187 1 Ar 6.75394 23.6388 10.1309
188 1 Ar 6.75394 23.6388 13.5079
189 1 Ar 6.75394 23.6388 16.8848
190 1 Ar 6.75394 23.6388 20.2618
191 1 Ar 6.75394 23.6388 23.6388
192 1 Ar 10.1309 0 0
193 1 Ar 10.1309 0 3.37697
194 1 Ar 10.1309 0 6.75394
195 1 Ar 10.1309 0 10.1309
196 1 Ar 10.1309 0 13.5079
197 1 Ar 10.1309 0 16.8848
198 1 Ar 10.1309 0 20.2618
199 1 Ar 10.1309 0 23.6388
200 1 Ar 10.1309 3.37697 0
201 1 Ar 10.1309 3.37697 3.37697
202 1 Ar 10.1309 3.37697 6.75394
203 1 Ar 10.1309 3.37697 10.1309
204 1 Ar 10.1309 3.37697 13.5079
205 1 Ar 10.1309 3.37697 16.8848
206 1 Ar 10.1309 3.37697 20.2618
207 1 Ar 10.1309 3.37697 23.6388
208 1 Ar 10.1309 6.75394 0
209 1 Ar 10.1309 6.75394 3.37697
210 1 Ar 10.1309 6.75394 6.75394
211 1 Ar 10.1309 6.75394 10.1309
212 1 Ar 10.1309 6.75394 13.5079
213 1 Ar 10.1309 6.75394 16.8848
214 1 Ar 10.1309 6.75394 20.2618
215 1 Ar 10.1309 6.75394 23.6388
216 1 Ar 10.1309 10.1309 0
217 1 Ar 10.1309 10.1309 3.37697
218 1 Ar 10.1309 10.1309 6.75394
219 1 Ar 10.1309 10.1309 10.1309
220 1 Ar 10.1309 10.1309 13.5079
221 1 Ar 10.1309 10.1309 16.8848
222 1 Ar 10.1309 10.1309 20.2618
223 1 Ar 10.1309 10.1309 23.6388
224 1 Ar 10.1309 13.5079 0
225 1 Ar 10.1309 13.5079 3.37697
226 1 Ar 10.1309 13.5079 6.75394
227 1 Ar 10.1309 13.5079 10.1309
228 1 Ar 10.1309 13.5079 13.5079
229 1 Ar 10.1309 13.5079 16.8848
230 1 Ar 10.1309 13.5079 20.2618
231 1 Ar 10.1309 13.5079 23.6388
232 1 Ar 10.1309 16.8848 0
233 1 Ar 10.1309 16.8848 3.37697
234 1 Ar 10.1309 16.8848 6.75394
235 1 Ar 10.1309 16.8848 10.1309
236 1 Ar 10.1309 16.8848 13.5079
237 1 Ar 10.1309 16.8848 16.8848
238 1 Ar 10.1309 16.8848 20.2618
239 1 Ar 10.1309 16.8848 23.6388
240 1 Ar 10.1309 20.2618 0
241 1 Ar 10.1309 20.2618 3.37697
242 1 Ar 10.1309 20.2618 6.75394
243 1 Ar 10.1309 20.2618 10.1309
244 1 Ar 10.1309 20.2618 13.5079
245 1 Ar 10.1309 20.2618 16.8848
246 1 Ar 10.1309 20.2618 20.2618
247 1 Ar 10.1309 20.2618 23.6388
248 1 Ar 10.1309 23.6388 0
249 1 Ar 10.1309 23.6388 3.37697
250 1 Ar 10.1309 23.6388 6.75394
251 1 Ar 10.1309 23.6388 10.1309
252 1 Ar 10.1309 23.6388 13.5079
253 1 Ar 10.1309 23.6388 16.8848
254 1 Ar 10.1309 23.6388 20.2618
255 1 Ar 10.1309 23.6388 23.6388
256 1 Ar 13.5079 0 0
257 1 Ar 13.5079 0 3.37697
258 1 Ar 13.5079 0 6.75394
259 1 Ar 13.5079 0 10.1309
260 1 Ar 13.5079 0 13.5079
261 1 Ar 13.5079 0 16.8848
262 1 Ar 13.5079 0 20.2618
263 1 Ar 13.5079 0 23.6388
264 1 Ar 13.5079 3.37697 0
265 1 Ar 13.5079 3.37697 3.37697
266 1 Ar 13.5079 3.37697 6.75394
267 1 Ar 13.5079 3.37697 10.1309
268 1 Ar 13.5079 3.37697 13.5079
269 1 Ar 13.5079 3.37697 16.8848
270 1 Ar 13.5079 3.37697 20.2618
271 1 Ar 13.5079 3.37697 23.6388
272 1 Ar 13.5079 6.75394 0
273 1 Ar 13.5079 6.75394 3.37697
274 1 Ar 13.5079 6.75394 6.75394
275 1 Ar 13.5079 6.75394 10.1309
276 1 Ar 13.5079 6.75394 13.5079
277 1 Ar 13.5079 6.75394 16.8848
278 1 Ar 13.5079 6.75394 20.2618
279 1 Ar 13.5079 6.75394 23.6388
280 1 Ar 13.5079 10.1309 0
281 1 Ar 13.5079 10.1309 3.37697
282 1 Ar 13.5079 10.1309 6.75394
283 1 Ar 13.5079 10.1309 10.1309
284 1 Ar 13.5079 10.1309 13.5079
285 1 Ar 13.5079 10.1309 16.8848
286 1 Ar 13.5079 10.1309 20.2618
287 1 Ar 13.5079 10.1309 23.6388
288 1 Ar 13.5079 13.5079 0
289 1 Ar 13.5079 13.5079 3.37697
290 1 Ar 13.5079 13.5079 6.75394
291 1 Ar 13.5079 13.5079 10.1309
292 1 Ar 13.5079 13.5079 13.5079
293 1 Ar 13.5079 13.5079 16.8848
294 1 Ar 13.5079 13.5079 20.2618
295 1 Ar 13.5079 13.5079 23.6388
296 1 Ar 13.5079 16.8848 0
297 1 Ar 13.5079 16.8848 3.37697
298 1 Ar 13.5079 16.8848 6.75394
299 1 Ar 13.5079 16.8848 10.1309
300 1 Ar 13.5079 16.8848 13.5079
301 1 Ar 13.5079 16.8848 16.8848
302 1 Ar 13.5079 16.8848 20.2618
303 1 Ar 13.5079 16.8848 23.6388
304 1 Ar 13.5079 20.2618 0
305 1 Ar 13.5079 20.2618 3.37697
306 1 Ar 13.5079 20.2618 6.75394
307 1 Ar 13.5079 20.2618 10.1309
308 1 Ar 13.5079 20.2618 13.5079
309 1 Ar 13.5079 20.2618 16.8848
310 1 Ar 13.5079 20.2618 20.2618
311 1 Ar 13.5079 20.2618 23.6388
312 1 Ar 13.5079 23.6388 0
313 1 Ar 13.5079 23.6388 3.37697
314 1 Ar 13.5079 23.6388 6.75394
315 1 Ar 13.5079 23.6388 10.1309
316 1 Ar 13.5079 23.6388 13.5079
317 1 Ar 13.5079 23.6388 16.8848
318 1 Ar 13.5079 23.6388 20.2618
319 1 Ar 13.5079 23.6388 23.6388
320 1 Ar 16.8848 0 0
321 1 Ar 16.8848 0 3.37697
322 1 Ar 16.8848 0 6.75394
323 1 Ar 16.8848 0 10.1309
324 1 Ar 16.8848 0 13.5079
325 1 Ar 16.8848 0 16.8848
326 1 Ar 16.8848 0 20.2618
327 1 Ar 16.8848 0 23.6388
328 1 Ar 16.8848 3.37697 0
329 1 Ar 16.8848 3.37697 3.37697
330 1 Ar 16.8848 3.37697 6.75394
331 1 Ar 16.8848 3.37697 10.1309
332 1 Ar 16.8848 3.37697 13.5079
333 1 Ar 16.8848 3.37697 16.8848
334 1 Ar 16.8848 3.37697 20.2618
335 1 Ar 16.8848 3.37697 23.6388
336 1 Ar 16.8848 6.75394 0
337 1 Ar 16.8848 6.75394 3.37697
338 1 Ar 16.8848 6.75394 6.75394
339 1 Ar 16.8848 6.75394 10.1309
340 1 Ar 16.8848 6.75394 13.5079
341 1 Ar 16.8848 6.75394 16.8848
342 1 Ar 16.8848 6.75394 20.2618
343 1 Ar 16.8848 6.75394 23.6388
344 1 Ar 16.8848 10.1309 0
345 1 Ar 16.8848 10.1309 3.37697
346 1 Ar 16.8848 10.1309 6.75394
347 1 Ar 16.8848 10.1309 10.1309
348 1 Ar 16.8848 10.1309 13.5079
349 1 Ar 16.8848 10.1309 16.8848
350 1 Ar 16.8848 10.1309 20.2618
351 1 Ar 16.8848 10.1309 23.6388
352 1 Ar 16.8848 13.5079 0
353 1 Ar 16.8848 13.5079 3.37697
354 1 Ar 16.8848 13.5079 6.75394
355 1 Ar 16.8848 13.5079 10.1309
356 1 Ar 16.8848 13.5079 13.5079
357 1 Ar 16.8848 13.5079 16.8848
358 1 Ar 16.8848 13.5079 20.2618
359 1 Ar 16.8848 13.5079 23.6388
360 1 Ar 16.8848 16.8848 0
361 1 Ar 16.8848 16.8848 3.37697
362 1 Ar 16.8848 16.8848 6.75394
363 1 Ar 16.8848 16.8848 10.1309
364 1 Ar 16.8848 16.8848 13.5079
365 1 Ar 16.8848 16.8848 16.8848
366 1 Ar 16.8848 16.8848 20.2618
367 1 Ar 16.8848 16.8848 23.6388
368 1 Ar 16.8848 20.2618 0
369 1 Ar 16.8848 20.2618 3.37697
370 1 Ar 16.8848 20.2618 6.75394
371 1 Ar 16.8848 20.2618 10.1309
372 1 Ar 16.8848 20.2618 13.5079
373 1 Ar 16.8848 20.2618 16.8848
374 1 Ar 16.8848 20.2618 20.2618
375 1 Ar 16.8848 20.2618 23.6388
376 1 Ar 16.8848 23.6388 0
377 1 Ar 16.8848 23.6388 3.37697
378 1 Ar 16.8848 23.6388 6.75394
379 1 Ar 16.8848 23.6388 10.1309
380 1 Ar 16.8848 23.6388 13.5079
381 1 Ar 16.8848 23.6388 16.8848
382 1 Ar 16.8848 23.6388 20.2618
383 1 Ar 16.8848 23.6388 23.6388
384 1 Ar 20.2618 0 0
385 1 Ar 20.2618 0 3.37697
386 1 Ar 20.2618 0 6.75394
387 1 Ar 20.2618 0 10.1309
388 1 Ar 20.2618 0 13.5079
389 1 Ar 20.2618 0 16.8848
390 1 Ar 20.2618 0 20.2618
391 1 Ar 20.2618 0 23.6388
392 1 Ar 20.2618 3.37697 0
393 1 Ar 20.2618 3.37697 3.37697
394 1 Ar 20.2618 3.37697 6.75394
395 1 Ar 20.2618 3.37697 10.1309
396 1 Ar 20.2618 3.37697 13.5079
397 1 Ar 20.2618 3.37697 16.8848
398 1 Ar 20.2618 3.37697 20.2618
399 1 Ar 20.2618 3.37697 23.6388
400 1 Ar 20.2618 6.75394 0
401 1 Ar 20.2618 6.75394 3.37697
402 1 Ar 20.2618 6.75394 6.75394
403 1 Ar 20.2618 6.75394 10.1309
404 1 Ar 20.2618 6.75394 13.5079
405 1 Ar 20.2618 6.75394 16.8848
406 1 Ar 20.2618 6.75394 20.2618
407 1 Ar 20.2618 6.75394 23.6388
408 1 Ar 20.2618 10.1309 0
409 1 Ar 20.2618 10.1309 3.37697
410 1 Ar 20.2618 10.1309 6.75394
411 1 Ar 20.2618 10.1309 10.1309
412 1 Ar 20.2618 10.1309 13.5079
413 1 Ar 20.2618 10.1309 16.8848
414 1 Ar 20.2618 10.1309 20.2618
415 1 Ar 20.2618 10.1309 23.6388
416 1 Ar 20.2618 13.5079 0
417 1 Ar 20.2618 13.5079 3.37697
418 1 Ar 20.2618 13.5079 6.75394
419 1 Ar 20.2618 13.5079 10.1309
420 1 Ar 20.2618 13.5079 13.5079
421 1 Ar 20.2618 13.5079 16.8848
422 1 Ar 20.2618 13.5079 20.2618
423 1 Ar 20.2618 13.5079 23.6388
424 1 Ar 20.2618 16.8848 0
425 1 Ar 20.2618 16.8848 3.37697
426 1 Ar 20.2618 16.8848 6.75394
427 1 Ar 20.2618 16.8848 10.1309
428 1 Ar 20.2618 16.8848 13.5079
429 1 Ar 20.2618 16.8848 16.8848
430 1 Ar 20.2618 16.8848 20.2618
431 1 Ar 20.2618 16.8848 23.6388
432 1 Ar 20.2618 20.2618 0
433 1 Ar 20.2618 20.2618 3.37697
434 1 Ar 20.2618 20.2618 6.75394
435 1 Ar 20.2618 20.2618 10.1309
436 1 Ar 20.2618 20.2618 13.5079
437 1 Ar 20.2618 20.2618 16.8848
438 1 Ar 20.2618 20.2618 20.2618
439 1 Ar 20.2618 20.2618 23.6388
440 1 Ar 20.2618 23.6388 0
441 1 Ar 20.2618 23.6388 3.37697
442 1 Ar 20.2618 23.6388 6.75394
443 1 Ar 20.2618 23.6388 10.1309
444 1 Ar 20.2618 23.6388 13.5079
445 1 Ar 20.2618 23.6388 16.8848
446 1 Ar 20.2618 23.6388 20.2618
447 1 Ar 20.2618 23.6388 23.6388
448 1 Ar 23.6388 0 0
449 1 Ar 23.6388 0 3.37697
450 1 Ar 23.6388 0 6.75394
451 1 Ar 23.6388 0 10.1309
452 1 Ar 23.6388 0 13.5079
453 1 Ar 23.6388 0 16.8848
454 1 Ar 23.6388 0 20.2618
455 1 Ar 23.6388 0 23.6388
456 1 Ar 23.6388 3.37697 0
457 1 Ar 23.6388 3.37697 3.37697
458 1 Ar 23.6388 3.37697 6.75394
459 1 Ar 23.6388 3.37697 10.1309
460 1 Ar 23.6388 3.37697 13.5079
461 1 Ar 23.6388 3.37697 16.8848
462 1 Ar 23.6388 3.37697 20.2618
463 1 Ar 23.6388 3.37697 23.6388
464 1 Ar 23.6388 6.75394 0
465 1 Ar 23.6388 6.75394 3.37697
466 1 Ar 23.6388 6.75394 6.75394
467 1 Ar 23.6388 6.75394 10.1309
468 1 Ar 23.6388 6.75394 13.5079
469 1 Ar 23.6388 6.75394 16.8848
470 1 Ar 23.6388 6.75394 20.2618
471 1 Ar 23.6388 6.75394 23.6388
472 1 Ar 23.6388 10.1309 0
473 1 Ar 23.6388 10.1309 3.37697
474 1 Ar 23.6388 10.1309 6.75394
475 1 Ar 23.6388 10.1309 10.1309
476 1 Ar 23.6388 10.1309 13.5079
477 1 Ar 23.6388 10.1309 16.8848
478 1 Ar 23.6388 10.1309 20.2618
479 1 Ar 23.6388 10.1309 23.6388
480 1 Ar 23.6388 13.5079 0
481 1 Ar 23.6388 13.5079 3.37697
482 1 Ar 23.6388 13.5079 6.75394
483 1 Ar 23.6388 13.5079 10.1309
484 1 Ar 23.6388 13.5079 13.5079
485 1 Ar 23.6388 13.5079 16.8848
486 1 Ar 23.6388 13.5079 20.2618
487 1 Ar 23.6388 13.5079 23.6388
488 1 Ar 23.6388 16.8848 0
489 1 Ar 23.6388 16.8848 3.37697
490 1 Ar 23.6388 16.8848 6.75394
491 1 Ar 23.6388 16.8848 10.1309
492 1 Ar 23.6388 16.8848 13.5079
493 1 Ar 23.6388 16.8848 16.8848
494 1 Ar 23.6388 16.8848 20.2618
495 1 Ar 23.6388 16.8848 23.6388
496 1 Ar 23.6388 20.2618 0
497 1 Ar 23.6388 20.2618 3.37697
498 1 Ar 23.6388 20.2618 6.75394
499 1 Ar 23.6388 20.2618 10.1309
ITEM: TIMESTEP
19999
ITEM: NUMBER OF ATOMS
500
ITEM: BOX BOUNDS pp pp pp
0 30.3927
0 30.3927
0 30.3927
ITEM: ATOMS id type element xu yu zu
0 1 Ar 29.7223 30.3883 29.3771
1 1 Ar 0.138093 30.1667 2.65306
2 1 Ar 0.0421633 0.0614044 7.43653
3 1 Ar 29.6554 29.9022 10.7627
4 1 Ar 0.944801 0.328319 14.1688
5 1 Ar 28.6812 29.5247 16.7741
6 1 Ar 29.4249 29.253 20.0703
7 1 Ar 30.0178 29.3811 24.4595
8 1 Ar 27.0401 3.13487 0.950619
9 1 Ar 30.0623 3.26765 2.79509
10 1 Ar 29.8259 3.2238 6.23173
11 1 Ar 0.142952 2.92671 9.87637
12 1 Ar 0.677862 4.25146 13.3417
13 1 Ar 29.2419 3.09114 16.5877
14 1 Ar 29.6236 3.24967 20.5755
15 1 Ar 29.772 2.88812 23.8897
16 1 Ar 30.2538 6.82397 29.7951
17 1 Ar 30.1643 6.42656 3.16903
18 1 Ar 29.5403 6.70709 7.04436
19 1 Ar 29.1833 6.19614 10.3666
20 1 Ar 28.9651 7.33396 14.348
21 1 Ar 30.1796 6.03041 17.57
22 1 Ar 29.4933 7.04625 20.8823
23 1 Ar 30.2168 6.53517 24.4851
24 1 Ar 27.7332 10.6373 30.3209
25 1 Ar 30.0726 10.1583 2.45428
26 1 Ar 29.6821 10.2121 6.98171
27 1 Ar 0.233974 9.7951 10.2458
28 1 Ar 28.6829 10.5128 13.6323
29 1 Ar 29.8884 9.41982 16.9777
30 1 Ar 0.502192 10.5239 20.7238
31 1 Ar 0.802669 10.1332 24.0894
32 1 Ar 0.163166 14.553 29.2157
33 1 Ar 0.343321 13.3243 3.13568
34 1 Ar 0.45372 13.293 6.82224
35 1 Ar 30.2784 14.3029 10.0869
36 1 Ar 30.3659 13.5561 13.3239
37 1 Ar 29.059 12.6474 16.3058
38 1 Ar 30.1418 14.2705 20.8946
39 1 Ar 29.3874 13.1535 24.0612
40 1 Ar 0.228428 17.7416 30.1482
41 1 Ar 29.4461 16.6617 2.94413
42 1 Ar 29.6632 16.7439 6.34466
43 1 Ar 29.1687 18.4753 10.4631
44 1 Ar 29.8249 17.0309 13.8667
45 1 Ar 29.1574 16.1552 16.8392
46 1 Ar 0.698974 17.7563 20.5547
47 1 Ar 29.4936 16.4528 23.6451
48 1 Ar 29.4004 21.157 29.5647
49 1 Ar 0.131227 20.5146 2.97934
50 1 Ar 28.4988 20.3761 6.2887
51 1 Ar 0.11012 21.9473 10.2549
52 1 Ar 29.1771 20.7952 13.8552
53 1 Ar 30.2408 20.5202 17.0446
54 1 Ar 29.2645 21.1659 20.5637
55 1 Ar 29.756 19.9409 23.9534
56 1 Ar 28.1835 24.3638 30.0068
57 1 Ar 29.6156 24.0062 3.75554
58 1 Ar 29.8583 23.8098 7.4031
59 1 Ar 30.1499 25.6355 9.9468
60 1 Ar 29.6864 24.4744 13.8092
61 1 Ar 29.6054 24.8557 17.2241
62 1 Ar 28.89 25.2847 20.3764
63 1 Ar 0.378268 23.4386 24.8671
64 1 Ar 2.96544 29.5548 0.0123785
65 1 Ar 3.56541 29.0031 3.17121
66 1 Ar 3.41567 0.0131878 6.49875
67 1 Ar 2.70572 0.402971 10.1978
68 1 Ar 3.53908 28.1176 12.9321
69 1 Ar 2.77002 29.2603 17.2124
70 1 Ar 2.71831 30.3175 20.6372
71 1 Ar 3.54325 29.8866 24.2997
72 1 Ar 3.25172 3.19371 30.02
73 1 Ar 2.96817 2.71646 3.26207
74 1 Ar 2.65505 3.40675 6.55885
75 1 Ar 3.69653 3.66481 10.0967
76 1 Ar 3.8174 1.79763 13.1742
77 1 Ar 3.9371 2.57793 17.255
78 1 Ar 3.05796 3.15756 20.9114
79 1 Ar 3.00117 3.0855 24.1671
80 1 Ar 3.82387 6.86851 0.325759
81 1 Ar 3.32462 6.41025 3.52271
82 1 Ar 2.98134 7.36651 6.8071
83 1 Ar 2.15751 6.66087 10.4158
84 1 Ar 3.03726 6.67922 13.8818
85 1 Ar 3.31068 6.64655 17.3711
86 1 Ar 2.57458 6.58826 20.9528
87 1 Ar 3.17295 6.66874 24.9562
88 1 Ar 2.90312 10.0711 29.2571
89 1 Ar 3.24992 9.74309 2.32992
90 1 Ar 3.00388 10.8579 6.77124
91 1 Ar 3.65003 9.96908 10.0308
92 1 Ar 3.26472 10.6997 13.3095
93 1 Ar 3.34034 9.98966 16.7476
94 1 Ar 3.63172 9.81164 20.7397
95 1 Ar 3.56925 9.99 26.0034
96 1 Ar 3.49833 13.0729 0.353083
97 1 Ar 3.58646 12.7117 3.94302
98 1 Ar 3.98407 14.529 6.84477
99 1 Ar 3.27172 13.3681 10.3831
100 1 Ar 3.56781 14.1451 14.1773
101 1 Ar 2.01902 13.3161 17.1593
102 1 Ar 3.13767 13.4585 20.7739
103 1 Ar 3.08401 13.8012 24.251
104 1 Ar 3.26852 16.1291 29.3053
105 1 Ar 2.77889 16.1131 3.12032
106 1 Ar 2.87706 18.0685 6.26765
107 1 Ar 2.25737 16.579 9.95993
108 1 Ar 3.51526 16.9941 13.1931
109 1 Ar 2.14806 16.5591 16.6447
110 1 Ar 3.92703 16.5898 19.6417
111 1 Ar 3.77402 18.1 23.2576
112 1 Ar 3.75082 19.6086 29.6385
113 1 Ar 3.38927 19.898 2.75542
114 1 Ar 2.18706 21.6006 6.33526
115 1 Ar 3.3407 20.2587 9.42342
116 1 Ar 2.73694 21.0426 12.8554
117 1 Ar 3.35425 20.0077 16.5843
118 1 Ar 3.18611 20.2795 20.2128
119 1 Ar 3.02148 21.5922 23.4689
120 1 Ar 2.58715 23.6891 29.8338
121 1 Ar 2.81192 22.9403 3.50079
122 1 Ar 2.64495 25.1875 6.2493
123 1 Ar 3.52219 24.021 9.5587
124 1 Ar 2.74838 24.8149 12.964
125 1 Ar 2.4396 23.0165 16.7078
126 1 Ar 1.97904 24.3883 20.0398
127 1 Ar 3.99548 25.324 23.897
128 1 Ar 6.29054 30.1579 29.9897
129 1 Ar 7.07302 0.425119 3.45501
130 1 Ar 7.02522 30.0701 6.98187
131 1 Ar 5.78857 29.2032 10.1023
132 1 Ar 6.91301 30.0763 13.2623
133 1 Ar 6.34578 0.114302 16.5009
134 1 Ar 6.3746 29.8085 20.4821
135 1 Ar 6.82044 30.2547 24.1503
136 1 Ar 7.12154 2.79855 0.527409
137 1 Ar 6.22728 3.65559 3.65177
138 1 Ar 6.03384 3.35225 6.8565
139 1 Ar 7.07559 3.26964 10.049
140 1 Ar 6.97284 3.04357 13.4231
141 1 Ar 7.1367 3.73959 16.8024
142 1 Ar 6.55658 2.97007 20.4414
143 1 Ar 6.71586 3.01343 25.3218
144 1 Ar 7.03596 6.00142 29.2637
145 1 Ar 7.07738 6.65545 2.42577
146 1 Ar 6.94116 6.80373 6.51958
147 1 Ar 5.93869 6.56069 10.2706
148 1 Ar 6.64919 6.23192 13.5955
149 1 Ar 6.41713 7.01448 16.9371
150 1 Ar 6.32294 6.23727 20.2493
151 1 Ar 6.66595 6.2625 23.6677
152 1 Ar 6.25133 9.67891 29.8444
153 1 Ar 6.94216 9.94449 2.72697
154 1 Ar 6.60263 10.4698 6.35099
155 1 Ar 7.00642 9.64324 9.65824
156 1 Ar 6.55579 9.45304 13.1871
157 1 Ar 6.64372 10.23 16.3269
158 1 Ar 6.93716 9.74966 20.7597
159 1 Ar 6.86148 9.63513 24.7917
160 1 Ar 7.08929 13.2949 0.0785051
161 1 Ar 7.09716 13.0813 3.5547
162 1 Ar 7.39197 14.0143 6.90746
163 1 Ar 7.0301 13.652 10.2554
164 1 Ar 6.44234 12.7839 13.4097
165 1 Ar 6.33566 13.6688 17.0852
166 1 Ar 6.67589 13.0296 20.3735
167 1 Ar 6.23249 12.8397 23.8859
168 1 Ar 6.94114 16.7175 30.3257
169 1 Ar 6.84538 16.7733 3.40815
170 1 Ar 6.36191 17.5813 7.19909
171 1 Ar 6.0052 17.0036 10.7892
172 1 Ar 7.13976 16.3292 13.8619
173 1 Ar 6.01393 17.5011 17.0579
174 1 Ar 7.30251 16.1942 21.2381
175 1 Ar 6.8319 16.517 25.9815
176 1 Ar 6.93988 20.2183 0.181479
177 1 Ar 6.73205 20.0595 3.6005
178 1 Ar 5.89017 20.9854 6.6133
179 1 Ar 6.77838 20.2593 10.1514
180 1 Ar 6.11532 20.1189 13.6124
181 1 Ar 6.86138 20.8933 17.4222
182 1 Ar 6.5288 19.1665 20.1805
183 1 Ar 7.08484 20.5767 23.865
184 1 Ar 7.59123 23.446 29.1645
185 1 Ar 6.36191 23.7279 2.52808
186 1 Ar 6.23814 25.2717 6.87149
187 1 Ar 7.43228 23.7378 9.46348
188 1 Ar 6.1134 23.6205 13.9803
189 1 Ar 5.69291 24.4617 17.3677
190 1 Ar 5.63652 23.0194 20.7843
191 1 Ar 7.48278 23.8963 23.8682
192 1 Ar 10.3028 29.8485 29.805
193 1 Ar 10.2441 29.7549 3.07687
194 1 Ar 10.7139 29.6943 6.90793
195 1 Ar 8.98852 0.536512 10.0362
196 1 Ar 10.6026 0.30576 12.8702
197 1 Ar 10.0841 0.0353556 16.4546
198 1 Ar 10.2018 29.1328 20.3154
199 1 Ar 10.3008 29.2494 23.999
200 1 Ar 10.7697 3.00771 29.724
201 1 Ar 10.0999 2.75436 2.87988
202 1 Ar 9.4391 2.89515 6.40052
203 1 Ar 10.6695 3.63791 9.7028
204 1 Ar 10.3837 3.66351 13.4879
205 1 Ar 10.6988 3.20524 16.8842
206 1 Ar 10.0127 2.36624 20.3003
207 1 Ar 10.4128 2.46 23.9818
208 1 Ar 10.13 6.70773 0.00796799
209 1 Ar 10.8383 6.19077 3.16842
210 1 Ar 10.2408 6.71606 6.95834
211 1 Ar 9.69415 6.96326 10.153
212 1 Ar 10.5924 7.1071 13.5674
213 1 Ar 10.0082 6.66373 17.2563
214 1 Ar 10.0715 6.21362 20.5283
215 1 Ar 10.1622 6.26245 24.3046
216 1 Ar 9.64285 10.4986 30.2639
217 1 Ar 10.0439 9.78904 3.41277
218 1 Ar 9.77002 10.4525 6.85853
219 1 Ar 10.4468 10.3659 10.0969
220 1 Ar 9.95314 10.3476 13.3828
221 1 Ar 9.95872 9.93173 16.6802
222 1 Ar 9.75184 10.908 19.8588
223 1 Ar 10.0045 9.59965 23.4806
224 1 Ar 10.2733 14.1842 29.5214
225 1 Ar 10.2326 13.4615 3.23289
226 1 Ar 10.7339 13.9006 6.70893
227 1 Ar 10.76 13.7812 10.7194
228 1 Ar 9.58626 13.5708 14.018
229 1 Ar 9.97752 13.6998 17.2574
230 1 Ar 10.7908 14.1066 20.616
231 1 Ar 9.39936 13.2213 24.1225
232 1 Ar 10.5029 17.2064 0.517246
233 1 Ar 10.689 16.7912 3.88473
234 1 Ar 9.89071 17.2139 7.17493
235 1 Ar 10.0541 17.2751 10.292
236 1 Ar 10.6593 17.0018 13.4799
237 1 Ar 9.34697 17.0413 16.4516
238 1 Ar 10.7374 17.5429 19.7527
239 1 Ar 9.72673 16.9936 23.572
240 1 Ar 10.3092 21.5409 0.0311868
241 1 Ar 10.0302 20.1742 3.09731
242 1 Ar 9.4895 20.6315 6.33836
243 1 Ar 10.1018 20.7784 10.2976
244 1 Ar 9.88924 20.5349 13.7911
245 1 Ar 10.4796 20.4037 17.3165
246 1 Ar 9.82025 20.5343 21.1299
247 1 Ar 10.5534 20.4384 24.5399
248 1 Ar 10.2792 25.5298 29.8376
249 1 Ar 10.2785 24.0363 3.32162
250 1 Ar 10.2089 25.3408 6.6075
251 1 Ar 11.105 24.62 9.60555
252 1 Ar 9.37791 24.6613 13.1973
253 1 Ar 9.62637 24.2628 17.1344
254 1 Ar 9.5003 24.4172 20.9775
255 1 Ar 11.2749 23.7536 24.816
256 1 Ar 13.8746 28.981 0.080469
257 1 Ar 13.4031 0.703621 3.93224
258 1 Ar 14.3487 0.314269 7.41309
259 1 Ar 13.532 28.9429 10.1957
260 1 Ar 13.9489 30.1671 13.4267
261 1 Ar 13.3042 29.2767 17.6523
262 1 Ar 13.2453 0.313621 20.5778
263 1 Ar 13.0729 0.129547 25.519
264 1 Ar 14.5421 2.65354 28.3617
265 1 Ar 14.0646 3.11636 1.47733
266 1 Ar 13.3267 3.39395 6.02367
267 1 Ar 13.8261 2.86143 10.2248
268 1 Ar 13.6193 3.23955 13.7447
269 1 Ar 13.904 2.2765 17.2699
270 1 Ar 13.4595 3.87732 20.7283
271 1 Ar 12.8108 4.65393 26.0886
272 1 Ar 13.8154 6.17722 29.4972
273 1 Ar 14.1009 6.47424 3.12159
274 1 Ar 13.6855 6.65507 6.819
275 1 Ar 13.1774 6.89666 10.3781
276 1 Ar 14.0295 6.52827 13.5928
277 1 Ar 13.4378 5.88817 17.5495
278 1 Ar 13.2367 7.39103 20.5814
279 1 Ar 13.1609 7.21151 24.237
280 1 Ar 12.9549 9.88645 0.153154
281 1 Ar 13.4971 10.1934 3.28036
282 1 Ar 13.3891 10.0864 6.53879
283 1 Ar 13.6117 10.3238 10.0628
284 1 Ar 13.5769 9.97078 13.4364
285 1 Ar 13.5128 9.44794 16.7516
286 1 Ar 13.448 10.5665 19.9939
287 1 Ar 14.1111 10.5387 23.7951
288 1 Ar 13.4877 13.6083 27.6179
289 1 Ar 13.2036 13.2997 1.86843
290 1 Ar 13.9134 13.384 5.7392
291 1 Ar 13.8517 13.6092 9.36813
292 1 Ar 13.1357 13.3807 12.9769
293 1 Ar 13.5935 13.8477 16.4689
294 1 Ar 13.8868 13.9826 19.9378
295 1 Ar 12.8671 13.7953 24.0086
296 1 Ar 13.1268 17.7962 28.943
297 1 Ar 13.7346 17.4876 2.84536
298 1 Ar 13.1127 16.5082 6.80661
299 1 Ar 13.3181 16.8493 10.166
300 1 Ar 14.3255 17.5349 13.5553
301 1 Ar 12.6408 16.9947 17.1076
302 1 Ar 14.285 17.4276 20.8303
303 1 Ar 12.6617 17.1087 25.5503
304 1 Ar 14.0187 20.3614 0.194061
305 1 Ar 13.2223 21.51 3.48956
306 1 Ar 13.056 20.1613 6.67017
307 1 Ar 13.5168 20.1879 10.1926
308 1 Ar 13.8005 21.188 13.0889
309 1 Ar 13.5287 20.3421 16.1768
310 1 Ar 13.294 20.8185 20.0999
311 1 Ar 13.7786 19.6802 23.683
312 1 Ar 13.8085 23.6917 30.1709
313 1 Ar 13.5593 25.1487 3.31176
314 1 Ar 13.3138 23.6284 6.94854
315 1 Ar 14.2588 23.6061 10.4049
316 1 Ar 13.4053 25.0643 13.7733
317 1 Ar 12.9636 23.932 17.6839
318 1 Ar 13.2197 24.6639 21.2626
319 1 Ar 14.7297 22.7123 26.0809
320 1 Ar 17.1843 29.4688 29.6595
321 1 Ar 16.5008 0.0585862 3.25475
322 1 Ar 17.7952 0.414123 6.45496
323 1 Ar 17.5908 30.133 10.6666
324 1 Ar 17.239 28.8922 13.7733
325 1 Ar 16.7103 30.0314 16.9593
326 1 Ar 16.7003 29.7891 20.6209
327 1 Ar 16.144 29.3278 24.4153
328 1 Ar 17.1708 2.19404 0.348718
329 1 Ar 16.9344 3.16872 3.8537
330 1 Ar 17.0041 3.63991 6.93012
331 1 Ar 17.4364 3.44157 10.1653
332 1 Ar 16.8862 2.58961 13.3146
333 1 Ar 17.2107 3.05982 16.8124
334 1 Ar 17.1557 2.99324 20.9925
335 1 Ar 15.746 2.66021 24.8153
336 1 Ar 17.8617 6.29345 30.0856
337 1 Ar 17.4626 6.44227 3.07823
338 1 Ar 17.3232 6.86978 6.61061
339 1 Ar 16.5233 6.50493 9.58035
340 1 Ar 17.6672 6.38368 13.0178
341 1 Ar 17.0834 6.70212 16.5556
342 1 Ar 16.7187 6.36751 20.1427
343 1 Ar 16.5741 6.56999 23.7944
344 1 Ar 16.398 9.31641 29.9928
345 1 Ar 16.6637 9.82189 3.21661
346 1 Ar 16.5825 10.3224 6.67808
347 1 Ar 16.8479 10.1404 10.0664
348 1 Ar 16.8941 10.1993 13.4074
349 1 Ar 17.1413 10.3078 16.6207
350 1 Ar 16.5574 9.96533 20.1718
351 1 Ar 17.6487 9.92465 24.3655
352 1 Ar 16.9313 13.5609 28.0632
353 1 Ar 16.6623 13.232 3.05058
354 1 Ar 17.6576 13.5465 6.88972
355 1 Ar 17.3236 13.6539 10.142
356 1 Ar 16.3281 13.499 13.785
357 1 Ar 17.3343 13.5949 16.7693
358 1 Ar 17.0415 13.2603 20.585
359 1 Ar 16.3881 13.5859 24.534
360 1 Ar 15.7351 15.894 0.125327
361 1 Ar 17.4587 16.8589 2.83054
362 1 Ar 17.1462 16.8955 6.43703
363 1 Ar 17.4285 17.4404 9.67422
364 1 Ar 17.867 16.6225 12.973
365 1 Ar 16.0528 16.5744 16.3212
366 1 Ar 18.0042 16.8846 20.5001
367 1 Ar 17.2522 17.0623 24.7897
368 1 Ar 17.4769 20.6319 29.5368
369 1 Ar 16.8015 20.3952 2.92157
370 1 Ar 16.5806 20.1551 6.56965
371 1 Ar 16.9778 21.1536 10.3853
372 1 Ar 18.1172 20.0376 13.57
373 1 Ar 17.0799 20.1882 17.09
374 1 Ar 16.7994 20.4626 20.6844
375 1 Ar 17.3619 20.7551 24.303
376 1 Ar 17.5565 24.1726 29.2644
377 1 Ar 16.7347 23.8278 2.87737
378 1 Ar 17.3902 24.41 6.8188
379 1 Ar 17.8865 24.5095 10.3599
380 1 Ar 17.2658 23.5251 14.568
381 1 Ar 16.7999 23.8176 17.8884
382 1 Ar 16.7832 23.5299 21.6567
383 1 Ar 17.4157 25.1998 25.4393
384 1 Ar 20.4185 29.824 29.8523
385 1 Ar 20.2252 28.7346 3.53152
386 1 Ar 20.074 28.6238 7.07004
387 1 Ar 20.7642 29.3851 10.3909
388 1 Ar 20.2387 30.2477 13.5622
389 1 Ar 20.1027 30.1557 17.0175
390 1 Ar 19.9743 30.2536 20.6464
391 1 Ar 19.869 29.4007 24.5245
392 1 Ar 20.481 2.94678 29.3807
393 1 Ar 20.429 2.81444 2.70238
394 1 Ar 20.3116 3.17036 6.38553
395 1 Ar 21.0355 2.35989 9.76861
396 1 Ar 20.678 3.61631 13.3035
397 1 Ar 20.8579 3.26577 16.3944
398 1 Ar 20.5444 3.04487 19.8566
399 1 Ar 20.2243 2.47512 23.8361
400 1 Ar 21.6143 6.24354 29.0866
401 1 Ar 20.5779 7.17243 2.44952
402 1 Ar 20.7756 6.9054 5.81869
403 1 Ar 20.459 5.68625 9.94533
404 1 Ar 20.6232 7.11238 13.4224
405 1 Ar 20.2141 6.48875 16.9226
406 1 Ar 21.1065 6.43481 20.4568
407 1 Ar 19.8907 6.47379 24.6537
408 1 Ar 19.8461 10.0516 27.8571
409 1 Ar 20.1226 10.7562 3.74085
410 1 Ar 20.3018 10.4246 6.9674
411 1 Ar 20.2511 9.45085 10.2101
412 1 Ar 20.5739 10.5865 13.3228
413 1 Ar 20.8704 10.0573 17.0344
414 1 Ar 19.8333 9.80365 20.5477
415 1 Ar 21.1086 9.95186 24.5776
416 1 Ar 21.156 13.8941 29.6397
417 1 Ar 20.1566 14.2485 3.01856
418 1 Ar 20.9011 13.8039 6.33111
419 1 Ar 20.6228 13.161 10.4908
420 1 Ar 19.6266 13.7215 13.7952
421 1 Ar 20.757 13.8506 17.3423
422 1 Ar 20.1463 13.6334 21.0617
423 1 Ar 19.7492 13.295 25.4737
424 1 Ar 19.5602 16.9817 30.0322
425 1 Ar 20.9814 17.6073 3.72194
426 1 Ar 21.326 17.3069 6.96074
427 1 Ar 20.5893 16.6612 10.1769
428 1 Ar 21.5263 16.4661 13.645
429 1 Ar 19.831 17.515 16.5465
430 1 Ar 21.8232 16.7942 19.4558
431 1 Ar 20.5959 16.1783 24.041
432 1 Ar 21.192 20.614 29.0915
433 1 Ar 20.6132 20.9411 2.69169
434 1 Ar 20.762 20.8149 6.70178
435 1 Ar 20.4186 21.0239 10.2417
436 1 Ar 21.7691 20.1355 13.7402
437 1 Ar 20.9452 20.5154 17.0462
438 1 Ar 19.9754 21.4812 20.1572
439 1 Ar 21.9996 19.9341 24.424
440 1 Ar 20.7313 24.5195 0.213199
441 1 Ar 21.5468 25.0937 3.7134
442 1 Ar 20.7887 24.3413 6.7878
443 1 Ar 21.1436 25.1767 10.5341
444 1 Ar 21.7714 23.6474 13.858