ITEM: TIMESTEP
-1
ITEM: NUMBER OF ATOMS
500
ITEM: BOX BOUNDS pp pp pp
0 58.1392
0 58.1392
0 58.1392
ITEM: ATOMS id type element xu yu zu
0 1 Ar 0 0 0
1 1 Ar 0 0 6.45991
2 1 Ar 0 0 12.9198
3 1 Ar 0 0 19.3797
4 1 Ar 0 0 25.8396
5 1 Ar 0 0 32.2995
6 1 Ar 0 0 38.7595
7 1 Ar 0 0 45.2194
8 1 Ar 0 6.45991 0
9 1 Ar 0 6.45991 6.45991
10 1 Ar 0 6.45991 12.9198
11 1 Ar 0 6.45991 19.3797
12 1 Ar 0 6.45991 25.8396
13 1 Ar 0 6.45991 32.2995
14 1 Ar 0 6.45991 38.7595
15 1 Ar 0 6.45991 45.2194
16 1 Ar 0 12.9198 0
17 1 Ar 0 12.9198 6.45991
18 1 Ar 0 12.9198 12.9198
19 1 Ar 0 12.9198 19.3797
20 1 Ar 0 12.9198 25.8396
21 1 Ar 0 12.9198 32.2995
22 1 Ar 0 12.9198 38.7595
23 1 Ar 0 12.9198 45.2194
24 1 Ar 0 19.3797 0
25 1 Ar 0 19.3797 6.45991
26 1 Ar 0 19.3797 12.9198
27 1 Ar 0 19.3797 19.3797
28 1 Ar 0 19.3797 25.8396
29 1 Ar 0 19.3797 32.2995
30 1 Ar 0 19.3797 38.7595
31 1 Ar 0 19.3797 45.2194
32 1 Ar 0 25.8396 0
33 1 Ar 0 25.8396 6.45991
34 1 Ar 0 25.8396 12.9198
35 1 Ar 0 25.8396 19.3797
36 1 Ar 0 25.8396 25.8396
37 1 Ar 0 25.8396 32.2995
38 1 Ar 0 25.8396 38.7595
39 1 Ar 0 25.8396 45.2194
40 1 Ar 0 32.2995 0
41 1 Ar 0 32.2995 6.45991
42 1 Ar 0 32.2995 12.9198
43 1 Ar 0 32.2995 19.3797
44 1 Ar 0 32.2995 25.8396
45 1 Ar 0 32.2995 32.2995
46 1 Ar 0 32.2995 38.7595
47 1 Ar 0 32.2995 45.2194
48 1 Ar 0 38.7595 0
49 1 Ar 0 38.7595 6.45991
50 1 Ar 0 38.7595 12.9198
51 1 Ar 0 38.7595 19.3797
52 1 Ar 0 38.7595 25.8396
53 1 Ar 0 38.7595 32.2995
54 1 Ar 0 38.7595 38.7595
55 1 Ar 0 38.7595 45.2194
56 1 Ar 0 45.2194 0
57 1 Ar 0 45.2194 6.45991
58 1 Ar 0 45.2194 12.9198
59 1 Ar 0 45.2194 19.3797
60 1 Ar 0 45.2194 25.8396
61 1 Ar 0 45.2194 32.2995
62 1 Ar 0 45.2194 38.7595
63 1 Ar 0 45.2194 45.2194
64 1 Ar 6.45991 0 0
65 1 Ar 6.45991 0 6.45991
66 1 Ar 6.45991 0 12.9198
67 1 Ar 6.45991 0 19.3797
68 1 Ar 6.45991 0 25.8396
69 1 Ar 6.45991 0 32.2995
70 1 Ar 6.45991 0 38.7595
71 1 Ar 6.45991 0 45.2194
72 1 Ar 6.45991 6.45991 0
73 1 Ar 6.45991 6.45991 6.45991
74 1 Ar 6.45991 6.45991 12.9198
75 1 Ar 6.45991 6.45991 19.3797
76 1 Ar 6.45991 6.45991 25.8396
77 1 Ar 6.45991 6.45991 32.2995
78 1 Ar 6.45991 6.45991 38.7595
79 1 Ar 6.45991 6.45991 45.2194
80 1 Ar 6.45991 12.9198 0
81 1 Ar 6.45991 12.9198 6.45991
82 1 Ar 6.45991 12.9198 12.9198
83 1 Ar 6.45991 12.9198 19.3797
84 1 Ar 6.45991 12.9198 25.8396
85 1 Ar 6.45991 12.9198 32.2995
86 1 Ar 6.45991 12.9198 38.7595
87 1 Ar 6.45991 12.9198 45.2194
88 1 Ar 6.45991 19.3797 0
89 1 Ar 6.45991 19.3797 6.45991
90 1 Ar 6.45991 19.3797 12.9198
91 1 Ar 6.45991 19.3797 19.3797
92 1 Ar 6.45991 19.3797 25.8396
93 1 Ar 6.45991 19.3797 32.2995
94 1 Ar 6.45991 19.3797 38.7595
95 1 Ar 6.45991 19.3797 45.2194
96 1 Ar 6.45991 25.8396 0
97 1 Ar 6.45991 25.8396 6.45991
98 1 Ar 6.45991 25.8396 12.9198
99 1 Ar 6.45991 25.8396 19.3797
100 1 Ar 6.45991 25.8396 25.8396
101 1 Ar 6.45991 25.8396 32.2995
102 1 Ar 6.45991 25.8396 38.7595
103 1 Ar 6.45991 25.8396 45.2194
104 1 Ar 6.45991 32.2995 0
105 1 Ar 6.45991 32.2995 6.45991
106 1 Ar 6.45991 32.2995 12.9198
107 1 Ar 6.45991 32.2995 19.3797
108 1 Ar 6.45991 32.2995 25.8396
109 1 Ar 6.45991 32.2995 32.2995
110 1 Ar 6.45991 32.2995 38.7595
111 1 Ar 6.45991 32.2995 45.2194
112 1 Ar 6.45991 38.7595 0
113 1 Ar 6.45991 38.7595 6.45991
114 1 Ar 6.45991 38.7595 12.9198
115 1 Ar 6.45991 38.7595 19.3797
116 1 Ar 6.45991 38.7595 25.8396
117 1 Ar 6.45991 38.7595 32.2995
118 1 Ar 6.45991 38.7595 38.7595
119 1 Ar 6.45991 38.7595 45.2194
120 1 Ar 6.45991 45.2194 0
121 1 Ar 6.45991 45.2194 6.45991
122 1 Ar 6.45991 45.2194 12.9198
123 1 Ar 6.45991 45.2194 19.3797
124 1 Ar 6.45991 45.2194 25.8396
125 1 Ar 6.45991 45.2194 32.2995
126 1 Ar 6.45991 45.2194 38.7595
127 1 Ar 6.45991 45.2194 45.2194
128 1 Ar 12.9198 0 0
129 1 Ar 12.9198 0 6.45991
130 1 Ar 12.9198 0 12.9198
131 1 Ar 12.9198 0 19.3797
132 1 Ar 12.9198 0 25.8396
133 1 Ar 12.9198 0 32.2995
134 1 Ar 12.9198 0 38.7595
135 1 Ar 12.9198 0 45.2194
136 1 Ar 12.9198 6.45991 0
137 1 Ar 12.9198 6.45991 6.45991
138 1 Ar 12.9198 6.45991 12.9198
139 1 Ar 12.9198 6.45991 19.3797
140 1 Ar 12.9198 6.45991 25.8396
141 1 Ar 12.9198 6.45991 32.2995
142 1 Ar 12.9198 6.45991 38.7595
143 1 Ar 12.9198 6.45991 45.2194
144 1 Ar 12.9198 12.9198 0
145 1 Ar 12.9198 12.9198 6.45991
146 1 Ar 12.9198 12.9198 12.9198
147 1 Ar 12.9198 12.9198 19.3797
148 1 Ar 12.9198 12.9198 25.8396
149 1 Ar 12.9198 12.9198 32.2995
150 1 Ar 12.9198 12.9198 38.7595
151 1 Ar 12.9198 12.9198 45.2194
152 1 Ar 12.9198 19.3797 0
153 1 Ar 12.9198 19.3797 6.45991
154 1 Ar 12.9198 19.3797 12.9198
155 1 Ar 12.9198 19.3797 19.3797
156 1 Ar 12.9198 19.3797 25.8396
157 1 Ar 12.9198 19.3797 32.2995
158 1 Ar 12.9198 19.3797 38.7595
159 1 Ar 12.9198 19.3797 45.2194
160 1 Ar 12.9198 25.8396 0
161 1 Ar 12.9198 25.8396 6.45991
162 1 Ar 12.9198 25.8396 12.9198
163 1 Ar 12.9198 25.8396 19.3797
164 1 Ar 12.9198 25.8396 25.8396
165 1 Ar 12.9198 25.8396 32.2995
166 1 Ar 12.9198 25.8396 38.7595
167 1 Ar 12.9198 25.8396 45.2194
168 1 Ar 12.9198 32.2995 0
169 1 Ar 12.9198 32.2995 6.45991
170 1 Ar 12.9198 32.2995 12.9198
171 1 Ar 12.9198 32.2995 19.3797
172 1 Ar 12.9198 32.2995 25.8396
173 1 Ar 12.9198 32.2995 32.2995
174 1 Ar 12.9198 32.2995 38.7595
175 1 Ar 12.9198 32.2995 45.2194
176 1 Ar 12.9198 38.7595 0
177 1 Ar 12.9198 38.7595 6.45991
178 1 Ar 12.9198 38.7595 12.9198
179 1 Ar 12.9198 38.7595 19.3797
180 1 Ar 12.9198 38.7595 25.8396
181 1 Ar 12.9198 38.7595 32.2995
182 1 Ar 12.9198 38.7595 38.7595
183 1 Ar 12.9198 38.7595 45.2194
184 1 Ar 12.9198 45.2194 0
185 1 Ar 12.9198 45.2194 6.45991
186 1 Ar 12.9198 45.2194 12.9198
187 1 Ar 12.9198 45.2194 19.3797
188 1 Ar 12.9198 45.2194 25.8396
189 1 Ar 12.9198 45.2194 32.2995
190 1 Ar 12.9198 45.2194 38.7595
191 1 Ar 12.9198 45.2194 45.2194
192 1 Ar 19.3797 0 0
193 1 Ar 19.3797 0 6.45991
194 1 Ar 19.3797 0 12.9198
195 1 Ar 19.3797 0 19.3797
196 1 Ar 19.3797 0 25.8396
197 1 Ar 19.3797 0 32.2995
198 1 Ar 19.3797 0 38.7595
199 1 Ar 19.3797 0 45.2194
200 1 Ar 19.3797 6.45991 0
201 1 Ar 19.3797 6.45991 6.45991
202 1 Ar 19.3797 6.45991 12.9198
203 1 Ar 19.3797 6.45991 19.3797
204 1 Ar 19.3797 6.45991 25.8396
205 1 Ar 19.3797 6.45991 32.2995
206 1 Ar 19.3797 6.45991 38.7595
207 1 Ar 19.3797 6.45991 45.2194
208 1 Ar 19.3797 12.9198 0
209 1 Ar 19.3797 12.9198 6.45991
210 1 Ar 19.3797 12.9198 12.9198
211 1 Ar 19.3797 12.9198 19.3797
212 1 Ar 19.3797 12.9198 25.8396
213 1 Ar 19.3797 12.9198 32.2995
214 1 Ar 19.3797 12.9198 38.7595
215 1 Ar 19.3797 12.9198 45.2194
216 1 Ar 19.3797 19.3797 0
217 1 Ar 19.3797 19.3797 6.45991
218 1 Ar 19.3797 19.3797 12.9198
219 1 Ar 19.3797 19.3797 19.3797
220 1 Ar 19.3797 19.3797 25.8396
221 1 Ar 19.3797 19.3797 32.2995
222 1 Ar 19.3797 19.3797 38.7595
223 1 Ar 19.3797 19.3797 45.2194
224 1 Ar 19.3797 25.8396 0
225 1 Ar 19.3797 25.8396 6.45991
226 1 Ar 19.3797 25.8396 12.9198
227 1 Ar 19.3797 25.8396 19.3797
228 1 Ar 19.3797 25.8396 25.8396
229 1 Ar 19.3797 25.8396 32.2995
230 1 Ar 19.3797 25.8396 38.7595
231 1 Ar 19.3797 25.8396 45.2194
232 1 Ar 19.3797 32.2995 0
233 1 Ar 19.3797 32.2995 6.45991
234 1 Ar 19.3797 32.2995 12.9198
235 1 Ar 19.3797 32.2995 19.3797
236 1 Ar 19.3797 32.2995 25.8396
237 1 Ar 19.3797 32.2995 32.2995
238 1 Ar 19.3797 32.2995 38.7595
239 1 Ar 19.3797 32.2995 45.2194
240 1 Ar 19.3797 38.7595 0
241 1 Ar 19.3797 38.7595 6.45991
242 1 Ar 19.3797 38.7595 12.9198
243 1 Ar 19.3797 38.7595 19.3797
244 1 Ar 19.3797 38.7595 25.8396
245 1 Ar 19.3797 38.7595 32.2995
246 1 Ar 19.3797 38.7595 38.7595
247 1 Ar 19.3797 38.7595 45.2194
248 1 Ar 19.3797 45.2194 0
249 1 Ar 19.3797 45.2194 6.45991
250 1 Ar 19.3797 45.2194 12.9198
251 1 Ar 19.3797 45.2194 19.3797
252 1 Ar 19.3797 45.2194 25.8396
253 1 Ar 19.3797 45.2194 32.2995
254 1 Ar 19.3797 45.2194 38.7595
255 1 Ar 19.3797 45.2194 45.2194
256 1 Ar 25.8396 0 0
257 1 Ar 25.8396 0 6.45991
258 1 Ar 25.8396 0 12.9198
259 1 Ar 25.8396 0 19.3797
260 1 Ar 25.8396 0 25.8396
261 1 Ar 25.8396 0 32.2995
262 1 Ar 25.8396 0 38.7595
263 1 Ar 25.8396 0 45.2194
264 1 Ar 25.8396 6.45991 0
265 1 Ar 25.8396 6.45991 6.45991
266 1 Ar 25.8396 6.45991 12.9198
267 1 Ar 25.8396 6.45991 19.3797
268 1 Ar 25.8396 6.45991 25.8396
269 1 Ar 25.8396 6.45991 32.2995
270 1 Ar 25.8396 6.45991 38.7595
271 1 Ar 25.8396 6.45991 45.2194
272 1 Ar 25.8396 12.9198 0
273 1 Ar 25.8396 12.9198 6.45991
274 1 Ar 25.8396 12.9198 12.9198
275 1 Ar 25.8396 12.9198 19.3797
276 1 Ar 25.8396 12.9198 25.8396
277 1 Ar 25.8396 12.9198 32.2995
278 1 Ar 25.8396 12.9198 38.7595
279 1 Ar 25.8396 12.9198 45.2194
280 1 Ar 25.8396 19.3797 0
281 1 Ar 25.8396 19.3797 6.45991
282 1 Ar 25.8396 19.3797 12.9198
283 1 Ar 25.8396 19.3797 19.3797
284 1 Ar 25.8396 19.3797 25.8396
285 1 Ar 25.8396 19.3797 32.2995
286 1 Ar 25.8396 19.3797 38.7595
287 1 Ar 25.8396 19.3797 45.2194
288 1 Ar 25.8396 25.8396 0
289 1 Ar 25.8396 25.8396 6.45991
290 1 Ar 25.8396 25.8396 12.9198
291 1 Ar 25.8396 25.8396 19.3797
292 1 Ar 25.8396 25.8396 25.8396
293 1 Ar 25.8396 25.8396 32.2995
294 1 Ar 25.8396 25.8396 38.7595
295 1 Ar 25.8396 25.8396 45.2194
296 1 Ar 25.8396 32.2995 0
297 1 Ar 25.8396 32.2995 6.45991
298 1 Ar 25.8396 32.2995 12.9198
299 1 Ar 25.8396 32.2995 19.3797
300 1 Ar 25.8396 32.2995 25.8396
301 1 Ar 25.8396 32.2995 32.2995
302 1 Ar 25.8396 32.2995 38.7595
303 1 Ar 25.8396 32.2995 45.2194
304 1 Ar 25.8396 38.7595 0
305 1 Ar 25.8396 38.7595 6.45991
306 1 Ar 25.8396 38.7595 12.9198
307 1 Ar 25.8396 38.7595 19.3797
308 1 Ar 25.8396 38.7595 25.8396
309 1 Ar 25.8396 38.7595 32.2995
310 1 Ar 25.8396 38.7595 38.7595
311 1 Ar 25.8396 38.7595 45.2194
312 1 Ar 25.8396 45.2194 0
313 1 Ar 25.8396 45.2194 6.45991
314 1 Ar 25.8396 45.2194 12.9198
315 1 Ar 25.8396 45.2194 19.3797
316 1 Ar 25.8396 45.2194 25.8396
317 1 Ar 25.8396 45.2194 32.2995
318 1 Ar 25.8396 45.2194 38.7595
319 1 Ar 25.8396 45.2194 45.2194
320 1 Ar 32.2995 0 0
321 1 Ar 32.2995 0 6.45991
322 1 Ar 32.2995 0 12.9198
323 1 Ar 32.2995 0 19.3797
324 1 Ar 32.2995 0 25.8396
325 1 Ar 32.2995 0 32.2995
326 1 Ar 32.2995 0 38.7595
327 1 Ar 32.2995 0 45.2194
328 1 Ar 32.2995 6.45991 0
329 1 Ar 32.2995 6.45991 6.45991
330 1 Ar 32.2995 6.45991 12.9198
331 1 Ar 32.2995 6.45991 19.3797
332 1 Ar 32.2995 6.45991 25.8396
333 1 Ar 32.2995 6.45991 32.2995
334 1 Ar 32.2995 6.45991 38.7595
335 1 Ar 32.2995 6.45991 45.2194
336 1 Ar 32.2995 12.9198 0
337 1 Ar 32.2995 12.9198 6.45991
338 1 Ar 32.2995 12.9198 12.9198
339 1 Ar 32.2995 12.9198 19.3797
340 1 Ar 32.2995 12.9198 25.8396
341 1 Ar 32.2995 12.9198 32.2995
342 1 Ar 32.2995 12.9198 38.7595
343 1 Ar 32.2995 12.9198 45.2194
344 1 Ar 32.2995 19.3797 0
345 1 Ar 32.2995 19.3797 6.45991
346 1 Ar 32.2995 19.3797 12.9198
347 1 Ar 32.2995 19.3797 19.3797
348 1 Ar 32.2995 19.3797 25.8396
349 1 Ar 32.2995 19.3797 32.2995
350 1 Ar 32.2995 19.3797 38.7595
351 1 Ar 32.2995 19.3797 45.2194
352 1 Ar 32.2995 25.8396 0
353 1 Ar 32.2995 25.8396 6.45991
354 1 Ar 32.2995 25.8396 12.9198
355 1 Ar 32.2995 25.8396 19.3797
356 1 Ar 32.2995 25.8396 25.8396
357 1 Ar 32.2995 25.8396 32.2995
358 1 Ar 32.2995 25.8396 38.7595
359 1 Ar 32.2995 25.8396 45.2194
360 1 Ar 32.2995 32.2995 0
361 1 Ar 32.2995 32.2995 6.45991
362 1 Ar 32.2995 32.2995 12.9198
363 1 Ar 32.2995 32.2995 19.3797
364 1 Ar 32.2995 32.2995 25.8396
365 1 Ar 32.2995 32.2995 32.2995
366 1 Ar 32.2995 32.2995 38.7595
367 1 Ar 32.2995 32.2995 45.2194
368 1 Ar 32.2995 38.7595 0
369 1 Ar 32.2995 38.7595 6.45991
370 1 Ar 32.2995 38.7595 12.9198
371 1 Ar 32.2995 38.7595 19.3797
372 1 Ar 32.2995 38.7595 25.8396
373 1 Ar 32.2995 38.7595 32.2995
374 1 Ar 32.2995 38.7595 38.7595
375 1 Ar 32.2995 38.7595 45.2194
376 1 Ar 32.2995 45.2194 0
377 1 Ar 32.2995 45.2194 6.45991
378 1 Ar 32.2995 45.2194 12.9198
379 1 Ar 32.2995 45.2194 19.3797
380 1 Ar 32.2995 45.2194 25.8396
381 1 Ar 32.2995 45.2194 32.2995
382 1 Ar 32.2995 45.2194 38.7595
383 1 Ar 32.2995 45.2194 45.2194
384 1 Ar 38.7595 0 0
385 1 Ar 38.7595 0 6.45991
386 1 Ar 38.7595 0 12.9198
387 1 Ar 38.7595 0 19.3797
388 1 Ar 38.7595 0 25.8396
389 1 Ar 38.7595 0 32.2995
390 1 Ar 38.7595 0 38.7595
391 1 Ar 38.7595 0 45.2194
392 1 Ar 38.7595 6.45991 0
393 1 Ar 38.7595 6.45991 6.45991
394 1 Ar 38.7595 6.45991 12.9198
395 1 Ar 38.7595 6.45991 19.3797
396 1 Ar 38.7595 6.45991 25.8396
397 1 Ar 38.7595 6.45991 32.2995
398 1 Ar 38.7595 6.45991 38.7595
399 1 Ar 38.7595 6.45991 45.2194
400 1 Ar 38.7595 12.9198 0
401 1 Ar 38.7595 12.9198 6.45991
402 1 Ar 38.7595 12.9198 12.9198
403 1 Ar 38.7595 12.9198 19.3797
404 1 Ar 38.7595 12.9198 25.8396
405 1 Ar 38.7595 12.9198 32.2995
406 1 Ar 38.7595 12.9198 38.7595
407 1 Ar 38.7595 12.9198 45.2194
408 1 Ar 38.7595 19.3797 0
409 1 Ar 38.7595 19.3797 6.45991
410 1 Ar 38.7595 19.3797 12.9198
411 1 Ar 38.7595 19.3797 19.3797
412 1 Ar 38.7595 19.3797 25.8396
413 1 Ar 38.7595 19.3797 32.2995
414 1 Ar 38.7595 19.3797 38.7595
415 1 Ar 38.7595 19.3797 45.2194
416 1 Ar 38.7595 25.8396 0
417 1 Ar 38.7595 25.8396 6.45991
418 1 Ar 38.7595 25.8396 12.9198
419 1 Ar 38.7595 25.8396 19.3797
420 1 Ar 38.7595 25.8396 25.8396
421 1 Ar 38.7595 25.8396 32.2995
422 1 Ar 38.7595 25.8396 38.7595
423 1 Ar 38.7595 25.8396 45.2194
424 1 Ar 38.7595 32.2995 0
425 1 Ar 38.7595 32.2995 6.45991
426 1 Ar 38.7595 32.2995 12.9198
427 1 Ar 38.7595 32.2995 19.3797
428 1 Ar 38.7595 32.2995 25.8396
429 1 Ar 38.7595 32.2995 32.2995
430 1 Ar 38.7595 32.2995 38.7595
431 1 Ar 38.7595 32.2995 45.2194
432 1 Ar 38.7595 38.7595 0
433 1 Ar 38.7595 38.7595 6.45991
434 1 Ar 38.7595 38.7595 12.9198
435 1 Ar 38.7595 38.7595 19.3797
436 1 Ar 38.7595 38.7595 25.8396
437 1 Ar 38.7595 38.7595 32.2995
438 1 Ar 38.7595 38.7595 38.7595
439 1 Ar 38.7595 38.7595 45.2194
440 1 Ar 38.7595 45.2194 0
441 1 Ar 38.7595 45.2194 6.45991
442 1 Ar 38.7595 45.2194 12.9198
443 1 Ar 38.7595 45.2194 19.3797
444 1 Ar 38.7595 45.2194 25.8396
445 1 Ar 38.7595 45.2194 32.2995
446 1 Ar 38.7595 45.2194 38.7595
447 1 Ar 38.7595 45.2194 45.2194
448 1 Ar 45.2194 0 0
449 1 Ar 45.2194 0 6.45991
450 1 Ar 45.2194 0 12.9198
451 1 Ar 45.2194 0 19.3797
452 1 Ar 45.2194 0 25.8396
453 1 Ar 45.2194 0 32.2995
454 1 Ar 45.2194 0 38.7595
455 1 Ar 45.2194 0 45.2194
456 1 Ar 45.2194 6.45991 0
457 1 Ar 45.2194 6.45991 6.45991
458 1 Ar 45.2194 6.45991 12.9198
459 1 Ar 45.2194 6.45991 19.3797
460 1 Ar 45.2194 6.45991 25.8396
461 1 Ar 45.2194 6.45991 32.2995
462 1 Ar 45.2194 6.45991 38.7595
463 1 Ar 45.2194 6.45991 45.2194
464 1 Ar 45.2194 12.9198 0
465 1 Ar 45.2194 12.9198 6.45991
466 1 Ar 45.2194 12.9198 12.9198
467 1 Ar 45.2194 12.9198 19.3797
468 1 Ar 45.2194 12.9198 25.8396
469 1 Ar 45.2194 12.9198 32.2995
470 1 Ar 45.2194 12.9198 38.7595
471 1 Ar 45.2194 12.9198 45.2194
472 1 Ar 45.2194 19.3797 0
473 1 Ar 45.2194 19.3797 6.45991
474 1 Ar 45.2194 19.3797 12.9198
475 1 Ar 45.2194 19.3797 19.3797
476 1 Ar 45.2194 19.3797 25.8396
477 1 Ar 45.2194 19.3797 32.2995
478 1 Ar 45.2194 19.3797 38.7595
479 1 Ar 45.2194 19.3797 45.2194
480 1 Ar 45.2194 25.8396 0
481 1 Ar 45.2194 25.8396 6.45991
482 1 Ar 45.2194 25.8396 12.9198
483 1 Ar 45.2194 25.8396 19.3797
484 1 Ar 45.2194 25.8396 25.8396
485 1 Ar 45.2194 25.8396 32.2995
486 1 Ar 45.2194 25.8396 38.7595
487 1 Ar 45.2194 25.8396 45.2194
488 1 Ar 45.2194 32.2995 0
489 1 Ar 45.2194 32.2995 6.45991
490 1 Ar 45.2194 32.2995 12.9198
491 1 Ar 45.2194 32.2995 19.3797
492 1 Ar 45.2194 32.2995 25.8396
493 1 Ar 45.2194 32.2995 32.2995
494 1 Ar 45.2194 32.2995 38.7595
495 1 Ar 45.2194 32.2995 45.2194
496 1 Ar 45.2194 38.7595 0
497 1 Ar 45.2194 38.7595 6.45991
498 1 Ar 45.2194 38.7595 12.9198
499 1 Ar 45.2194 38.7595 19.3797
ITEM: TIMESTEP
19999
ITEM: NUMBER OF ATOMS
500
ITEM: BOX BOUNDS pp pp pp
0 58.1392
0 58.1392
0 58.1392
ITEM: ATOMS id type element xu yu zu
0 1 Ar 51.0145 41.9891 26.0994
1 1 Ar 56.1764 18.499 2.80161
2 1 Ar 55.5266 9.40298 6.64265
3 1 Ar 29.9458 8.72264 34.3721
4 1 Ar 35.7468 15.9257 7.82492
5 1 Ar 44.1776 24.8929 21.1219
6 1 Ar 5.59768 20.3588 54.5015
7 1 Ar 27.6502 5.15573 17.5403
8 1 Ar 51.8308 45.8862 3.51273
9 1 Ar 28.9023 12.2255 16.0333
10 1 Ar 47.2754 11.2627 3.9623
11 1 Ar 11.581 54.3856 44.7669
12 1 Ar 40.363 11.571 0.650071
13 1 Ar 13.9227 14.2402 13.9606
14 1 Ar 46.7504 28.2054 46.7844
15 1 Ar 14.3896 41.3774 10.1605
16 1 Ar 30.3441 5.97431 10.8187
17 1 Ar 57.8225 38.1177 55.5535
18 1 Ar 2.28545 14.7134 19.4728
19 1 Ar 29.0464 27.3744 28.5294
20 1 Ar 51.8732 27.5649 21.5281
21 1 Ar 57.8014 20.0837 20.3017
22 1 Ar 47.8067 37.7461 56.4894
23 1 Ar 3.6671 39.2041 4.86564
24 1 Ar 36.2702 57.1919 17.1502
25 1 Ar 2.0372 13.0683 41.2143
26 1 Ar 11.1351 36.0769 23.3076
27 1 Ar 18.2054 34.0836 50.5182
28 1 Ar 48.1976 26.8364 50.4311
29 1 Ar 56.0431 10.2302 42.719
30 1 Ar 27.7792 6.13356 35.7113
31 1 Ar 3.27738 3.43388 57.2928
32 1 Ar 0.748375 56.6354 19.5378
33 1 Ar 13.5883 50.8803 34.6693
34 1 Ar 21.4264 22.5476 1.18857
35 1 Ar 55.9498 7.20461 11.1618
36 1 Ar 38.5549 2.17291 14.5823
37 1 Ar 52.9094 49.1368 2.61472
38 1 Ar 17.6339 34.3276 23.421
39 1 Ar 4.93053 27.6853 15.0761
40 1 Ar 53.0404 6.67931 28.8644
41 1 Ar 8.18588 3.75981 40.8818
42 1 Ar 36.1758 36.8333 16.8437
43 1 Ar 47.3804 44.5312 3.89718
44 1 Ar 47.8618 9.21531 13.2358
45 1 Ar 45.8967 37.8511 41.3884
46 1 Ar 11.5626 31.1647 32.5867
47 1 Ar 12.8067 39.7468 24.3937
48 1 Ar 43.1643 42.9957 3.75607
49 1 Ar 12.9066 13.5939 39.2305
50 1 Ar 18.9002 55.9622 5.56682
51 1 Ar 48.7711 9.29951 9.4717
52 1 Ar 12.2279 2.05433 55.0066
53 1 Ar 12.6689 23.3434 27.8603
54 1 Ar 34.6049 26.4267 9.30986
55 1 Ar 48.7226 52.6008 32.3892
56 1 Ar 6.7672 33.5964 14.8111
57 1 Ar 54.9571 17.4938 20.7251
58 1 Ar 16.4046 40.887 45.9042
59 1 Ar 48.3024 12.6737 40.3617
60 1 Ar 18.4459 52.8145 54.5438
61 1 Ar 16.2344 17.1041 34.8344
62 1 Ar 44.9698 16.2468 45.1558
63 1 Ar 17.2661 13.5478 50.5492
64 1 Ar 34.8044 17.0883 20.0527
65 1 Ar 1.68365 25.3757 3.66018
66 1 Ar 25.2007 53.0074 40.9592
67 1 Ar 8.88723 41.8886 35.0465
68 1 Ar 42.6741 50.1829 42.9587
69 1 Ar 10.6032 19.0283 12.2184
70 1 Ar 13.8069 52.2191 11.7201
71 1 Ar 31.7147 44.1052 47.1425
72 1 Ar 49.8862 25.2879 23.9804
73 1 Ar 33.7653 21.3148 15.8101
74 1 Ar 12.4337 44.237 24.2254
75 1 Ar 40.8411 36.3443 33.2035
76 1 Ar 5.59959 54.3856 20.16
77 1 Ar 3.74809 29.3628 18.2468
78 1 Ar 3.80824 10.9051 22.4652
79 1 Ar 27.3846 22.9568 12.159
80 1 Ar 50.6147 19.9278 49.8524
81 1 Ar 14.4344 23.4194 47.9297
82 1 Ar 23.255 40.7733 38.6384
83 1 Ar 11.502 18.7542 43.9865
84 1 Ar 17.6378 3.50386 31.3458
85 1 Ar 47.5906 27.6906 21.9807
86 1 Ar 1.71397 5.51421 49.742
87 1 Ar 44.6143 25.8104 34.7448
88 1 Ar 14.7983 55.604 35.6818
89 1 Ar 42.7077 45.4041 43.8818
90 1 Ar 7.84997 18.6985 35.4723
91 1 Ar 28.07 25.6079 38.4417
92 1 Ar 52.5094 3.03153 51.1115
93 1 Ar 9.58369 42.9113 15.1313
94 1 Ar 21.2651 43.7856 45.2423
95 1 Ar 29.0172 21.6082 38.0607
96 1 Ar 26.5485 15.4691 7.22421
97 1 Ar 15.265 49.4002 39.7831
98 1 Ar 30.5574 19.983 52.2036
99 1 Ar 0.131067 35.4656 51.663
100 1 Ar 36.7109 2.19707 20.3603
101 1 Ar 55.1457 55.902 18.3527
102 1 Ar 36.9071 49.5873 11.9498
103 1 Ar 53.0899 56.259 53.197
104 1 Ar 28.4521 40.257 55.8957
105 1 Ar 21.0457 24.6926 25.4819
106 1 Ar 14.8689 30.9188 45.1586
107 1 Ar 41.2481 43.8629 26.8497
108 1 Ar 22.2535 22.138 50.8152
109 1 Ar 23.5847 39.0298 48.9576
110 1 Ar 2.17785 16.7469 13.7536
111 1 Ar 34.1902 16.3729 2.25034
112 1 Ar 31.1478 24.3157 38.5331
113 1 Ar 18.433 50.4366 15.0687
114 1 Ar 55.7695 37.5843 31.238
115 1 Ar 7.92488 34.0462 51.6271
116 1 Ar 33.921 48.1339 17.8911
117 1 Ar 26.3394 55.5736 1.7107
118 1 Ar 36.2897 41.2242 32.6393
119 1 Ar 12.3522 6.5409 16.508
120 1 Ar 19.8816 14.7207 40.9129
121 1 Ar 14.041 48.8644 57.4907
122 1 Ar 33.1086 11.3461 42.2903
123 1 Ar 49.1182 39.2669 30.1716
124 1 Ar 10.9894 27.0108 28.7781
125 1 Ar 2.42043 45.4076 17.0814
126 1 Ar 6.5467 13.057 54.5778
127 1 Ar 47.0571 47.2445 35.2512
128 1 Ar 12.5902 11.1997 24.7864
129 1 Ar 32.3335 22.4782 42.7758
130 1 Ar 52.067 0.970583 21.3864
131 1 Ar 24.521 10.0499 26.5727
132 1 Ar 35.1537 19.4481 1.23864
133 1 Ar 37.3058 52.0218 41.9009
134 1 Ar 17.4546 43.406 4.18634
135 1 Ar 1.60425 13.5691 25.7397
136 1 Ar 49.0849 43.1487 31.7186
137 1 Ar 55.1101 14.077 8.2321
138 1 Ar 55.5708 1.89914 30.815
139 1 Ar 54.2628 42.5996 3.76377
140 1 Ar 28.2665 22.7385 7.11357
141 1 Ar 56.4964 47.7103 13.4936
142 1 Ar 27.7783 56.2272 19.5109
143 1 Ar 15.9507 7.39816 9.53296
144 1 Ar 19.7126 1.52213 35.5125
145 1 Ar 14.4296 29.9639 39.6644
146 1 Ar 19.0025 40.2686 43.5096
147 1 Ar 37.9345 15.8561 44.672
148 1 Ar 56.543 54.1287 21.1923
149 1 Ar 6.07515 52.2272 23.5147
150 1 Ar 17.7726 42.0351 26.0302
151 1 Ar 36.8777 56.6022 0.383393
152 1 Ar 55.6467 55.3505 11.354
153 1 Ar 36.4277 8.30272 39.523
154 1 Ar 56.4323 0.0972465 24.6815
155 1 Ar 42.7743 11.3098 46.7865
156 1 Ar 23.7804 3.61589 7.36615
157 1 Ar 51.9807 25.9592 45.3011
158 1 Ar 29.9693 17.2754 10.2441
159 1 Ar 12.9854 20.2268 19.2653
160 1 Ar 52.794 38.7326 56.8822
161 1 Ar 45.5531 22.7808 1.64826
162 1 Ar 34.4099 38.6326 53.3821
163 1 Ar 57.1079 15.4899 49.4627
164 1 Ar 19.5047 4.26395 12.578
165 1 Ar 44.7623 29.9775 37.8816
166 1 Ar 13.5871 25.6648 21.6881
167 1 Ar 31.56 46.1937 53.9004
168 1 Ar 6.00552 0.393371 49.914
169 1 Ar 3.78738 18.0967 27.5564
170 1 Ar 29.2328 52.5086 18.6421
171 1 Ar 49.1627 2.7189 7.70712
172 1 Ar 20.6099 38.3633 54.9402
173 1 Ar 47.3208 43.179 27.1682
174 1 Ar 12.8005 30.8661 9.20844
175 1 Ar 17.6321 34.1962 45.7359
176 1 Ar 32.7265 29.0121 29.2154
177 1 Ar 49.4134 6.47538 16.6902
178 1 Ar 45.3384 43.9903 32.0967
179 1 Ar 0.810755 2.81943 10.513
180 1 Ar 29.9625 37.931 52.4729
181 1 Ar 0.622723 40.5893 17.0304
182 1 Ar 25.154 22.8369 38.8631
183 1 Ar 47.2267 10.3189 18.6042
184 1 Ar 1.1283 35.314 6.41089
185 1 Ar 50.801 36.6328 45.5617
186 1 Ar 30.5893 27.5844 43.2016
187 1 Ar 10.9146 6.49471 28.9593
188 1 Ar 2.53779 39.9708 1.50394
189 1 Ar 6.23452 25.1432 57.8577
190 1 Ar 43.008 53.1461 49.8625
191 1 Ar 21.5427 18.3793 26.696
192 1 Ar 14.5494 45.4458 0.0254375
193 1 Ar 27.9477 20.454 34.6388
194 1 Ar 30.6203 43.4798 55.4098
195 1 Ar 29.9987 14.6602 37.5787
196 1 Ar 51.601 7.57904 53.6451
197 1 Ar 39.9963 51.6057 17.1636
198 1 Ar 35.693 7.76909 49.229
199 1 Ar 45.926 42.0618 6.52207
200 1 Ar 6.6921 1.29795 25.1241
201 1 Ar 46.1661 55.0616 51.7887
202 1 Ar 39.5859 33.9008 53.5033
203 1 Ar 28.7926 33.4055 39.1275
204 1 Ar 14.5089 50.5473 7.37899
205 1 Ar 37.4743 44.1769 28.624
206 1 Ar 14.0243 46.0499 37.8808
207 1 Ar 12.1498 3.28033 26.0911
208 1 Ar 39.2408 30.6893 51.6179
209 1 Ar 17.3673 31.759 42.1266
210 1 Ar 24.7203 31.7646 5.42892
211 1 Ar 36.4141 52.4991 16.2876
212 1 Ar 30.7533 42.9754 1.10882
213 1 Ar 48.8949 46.2149 15.079
214 1 Ar 37.378 13.2935 47.3375
215 1 Ar 24.4235 24.2703 35.3237
216 1 Ar 22.8875 53.5059 53.166
217 1 Ar 30.0366 39.4664 1.83599
218 1 Ar 3.98161 43.3305 22.7287
219 1 Ar 49.2866 28.1786 54.3083
220 1 Ar 40.8394 29.8689 48.3033
221 1 Ar 41.8024 36.5871 56.4461
222 1 Ar 49.2294 36.267 20.0139
223 1 Ar 21.0843 36.3977 22.0411
224 1 Ar 34.3099 48.2145 50.8207
225 1 Ar 15.7269 51.1939 28.8294
226 1 Ar 23.5946 6.52425 31.5819
227 1 Ar 46.3564 51.983 48.0781
228 1 Ar 21.6343 8.42835 14.1957
229 1 Ar 34.4372 17.4388 56.1621
230 1 Ar 27.1078 40.2052 34.3487
231 1 Ar 2.21275 8.12687 32.9826
232 1 Ar 53.2169 52.8714 2.78707
233 1 Ar 55.8814 1.00762 53.8438
234 1 Ar 7.48964 23.1799 21.5565
235 1 Ar 24.9678 13.9519 41.9422
236 1 Ar 17.0141 28.0661 34.8969
237 1 Ar 37.5897 22.6806 41.3382
238 1 Ar 24.6893 37.8525 45.5729
239 1 Ar 50.9714 57.5143 30.7203
240 1 Ar 37.9116 34.7089 21.6968
241 1 Ar 51.9833 50.5978 10.622
242 1 Ar 26.2982 24.9254 28.0615
243 1 Ar 26.7612 54.2069 47.6126
244 1 Ar 26.5549 54.8218 36.2834
245 1 Ar 49.5571 11.3186 22.1619
246 1 Ar 44.0685 50.2065 11.6015
247 1 Ar 15.9 48.8275 49.1976
248 1 Ar 29.4943 8.45905 29.5815
249 1 Ar 50.3355 16.2284 31.1183
250 1 Ar 28.9339 29.317 22.6107
251 1 Ar 32.0363 15.5874 54.6886
252 1 Ar 32.7415 28.472 37.6664
253 1 Ar 33.5819 50.9902 12.6649
254 1 Ar 3.46341 17.2351 48.0914
255 1 Ar 7.65606 0.121188 41.5839
256 1 Ar 39.3981 52.8143 4.38297
257 1 Ar 13.3716 15.0337 25.8397
258 1 Ar 7.11607 30.5014 17.4937
259 1 Ar 17.9761 2.91156 45.8109
260 1 Ar 50.2866 9.13111 57.1669
261 1 Ar 34.1604 49.1709 21.5141
262 1 Ar 21.5795 47.5058 22.76
263 1 Ar 0.398461 29.6947 43.8015
264 1 Ar 32.573 18.6737 13.2445
265 1 Ar 22.4551 30.5437 8.1662
266 1 Ar 12.7444 13.0847 8.62698
267 1 Ar 12.5404 8.72015 22.1608
268 1 Ar 34.3977 25.6026 28.9029
269 1 Ar 51.5279 16.2884 24.148
270 1 Ar 49.7265 51.9523 53.707
271 1 Ar 28.7526 5.11544 45.1772
272 1 Ar 44.6853 27.7477 30.5881
273 1 Ar 8.19681 51.2747 57.0915
274 1 Ar 39.786 2.87837 28.3625
275 1 Ar 5.96867 47.9968 25.0479
276 1 Ar 52.4255 9.12422 49.4222
277 1 Ar 4.95713 28.0255 33.2807
278 1 Ar 31.4143 27.3248 12.6754
279 1 Ar 32.1045 22.058 55.7224
280 1 Ar 0.15438 29.0866 1.78233
281 1 Ar 14.7412 0.664594 1.38504
282 1 Ar 12.4596 5.29394 41.8397
283 1 Ar 50.7462 42.447 6.35483
284 1 Ar 53.3376 54.7631 15.0081
285 1 Ar 0.86817 45.8307 24.5379
286 1 Ar 16.472 54.648 30.1973
287 1 Ar 51.1321 5.27693 10.1825
288 1 Ar 49.0396 1.25747 28.2086
289 1 Ar 28.3241 24.3252 22.4416
290 1 Ar 43.8277 14.5453 52.4007
291 1 Ar 24.6978 6.61479 24.0737
292 1 Ar 43.8227 57.8936 2.3962
293 1 Ar 0.833907 27.8158 21.7101
294 1 Ar 9.184 55.8404 19.7328
295 1 Ar 27.3163 41.5845 48.6916
296 1 Ar 42.0013 48.4567 50.5224
297 1 Ar 7.7393 37.8519 18.2701
298 1 Ar 27.3735 13.3579 4.01471
299 1 Ar 24.9862 42.0895 14.1383
300 1 Ar 43.9292 55.8842 54.5854
301 1 Ar 35.7668 57.6694 37.8709
302 1 Ar 29.351 29.2375 18.1308
303 1 Ar 49.7522 7.90908 24.3008
304 1 Ar 52.0583 43.9211 29.0258
305 1 Ar 27.6831 5.85694 2.12651
306 1 Ar 15.7271 17.0911 53.6654
307 1 Ar 46.4966 47.2028 0.795146
308 1 Ar 22.2529 27.7998 28.5107
309 1 Ar 12.6179 37.2495 47.8228
310 1 Ar 24.4226 56.7178 10.8819
311 1 Ar 34.9992 40.8268 21.6093
312 1 Ar 6.77214 30.1641 49.6282
313 1 Ar 12.8674 30.8173 48.481
314 1 Ar 46.8285 39.5917 50.1913
315 1 Ar 49.6298 33.1282 41.626
316 1 Ar 56.4864 14.9712 54.8242
317 1 Ar 31.134 7.72115 37.9611
318 1 Ar 42.5662 57.2249 31.3814
319 1 Ar 30.5129 49.7601 15.8273
320 1 Ar 55.917 28.4409 4.49425
321 1 Ar 33.1358 50.7413 4.76617
322 1 Ar 40.1227 4.70398 21.9031
323 1 Ar 27.6429 4.99533 21.4021
324 1 Ar 18.3802 20.6054 0.367615
325 1 Ar 11.3534 20.9901 40.5759
326 1 Ar 32.2104 2.04163 30.9499
327 1 Ar 23.7267 8.09946 5.87791
328 1 Ar 40.3516 32.8518 37.6935
329 1 Ar 16.3863 10.2733 23.5068
330 1 Ar 6.79021 19.6157 25.6424
331 1 Ar 14.3897 35.7339 19.9173
332 1 Ar 3.27954 6.01797 21.8474
333 1 Ar 48.3339 32.3698 38.112
334 1 Ar 7.87665 55.3389 26.7857
335 1 Ar 42.1585 31.6917 9.7551
336 1 Ar 35.5994 32.6127 12.74
337 1 Ar 5.36052 0.162739 55.3088
338 1 Ar 6.43372 14.3374 3.86082
339 1 Ar 52.5155 16.322 36.588
340 1 Ar 51.6622 28.8973 49.2976
341 1 Ar 33.2519 11.7776 38.6139
342 1 Ar 40.9031 5.31859 31.98
343 1 Ar 0.130473 58.0072 14.9023
344 1 Ar 25.4925 29.9137 17.6068
345 1 Ar 40.3349 28.38 32.1132
346 1 Ar 1.78697 4.37277 53.7658
347 1 Ar 39.2474 52.6365 23.2449
348 1 Ar 9.45536 11.631 37.0994
349 1 Ar 42.6055 53.0469 56.3176
350 1 Ar 48.5322 3.74836 23.7967
351 1 Ar 20.8184 51.4752 24.5026
352 1 Ar 24.3422 0.37445 32.0131
353 1 Ar 34.9863 3.12757 16.094
354 1 Ar 24.4414 7.77927 35.6398
355 1 Ar 0.698157 56.1196 5.95849
356 1 Ar 36.299 34.1293 46.0288
357 1 Ar 32.7395 36.5797 55.8359
358 1 Ar 55.0511 10.8824 50.4795
359 1 Ar 12.8421 15.9674 51.7132
360 1 Ar 37.3029 36.7951 34.7499
361 1 Ar 0.640655 44.9525 47.3981
362 1 Ar 51.3307 14.4565 41.9571
363 1 Ar 23.1239 15.5516 12.4311
364 1 Ar 25.4777 28.18 24.2746
365 1 Ar 25.8008 27.9802 30.7665
366 1 Ar 8.71084 51.2263 32.434
367 1 Ar 35.2808 35.5736 37.6052
368 1 Ar 17.6012 56.5675 12.3546
369 1 Ar 7.46044 38.0348 23.6295
370 1 Ar 46.0024 23.4548 31.8205
371 1 Ar 56.8838 38.9928 41.3738
372 1 Ar 14.7579 56.9076 27.5731
373 1 Ar 42.4588 24.0578 32.6185
374 1 Ar 53.0958 25.9759 48.7992
375 1 Ar 11.517 18.9998 49.6278
376 1 Ar 15.5048 9.50865 5.98285
377 1 Ar 8.98871 18.4769 21.8293
378 1 Ar 16.3146 27.6874 21.0405
379 1 Ar 45.1318 33.5941 45.2825
380 1 Ar 9.34955 48.5857 34.3038
381 1 Ar 23.0227 56.9898 37.7157
382 1 Ar 8.61194 5.69872 38.104
383 1 Ar 54.6863 21.5324 53.1535
384 1 Ar 39.6041 35.4189 7.3341
385 1 Ar 2.6932 50.6296 14.1065
386 1 Ar 27.8375 43.4248 44.0504
387 1 Ar 16.01 17.4895 49.0987
388 1 Ar 42.5189 14.1469 55.9482
389 1 Ar 13.1642 37.6312 52.8103
390 1 Ar 28.659 19.8418 19.379
391 1 Ar 2.67537 4.57489 31.7181
392 1 Ar 37.1853 12.0594 52.5589
393 1 Ar 54.7795 34.5054 11.7447
394 1 Ar 33.1025 48.2046 58.0388
395 1 Ar 26.3365 1.11102 27.2305
396 1 Ar 25.07 8.19443 41.3142
397 1 Ar 37.3037 47.55 23.4523
398 1 Ar 49.1512 23.6172 20.2452
399 1 Ar 7.19464 5.07972 44.4808
400 1 Ar 0.425969 52.507 39.0452
401 1 Ar 52.3459 2.41241 12.6148
402 1 Ar 34.3795 36.142 19.9473
403 1 Ar 54.5221 2.4872 26.7034
404 1 Ar 46.6198 37.0646 23.7026
405 1 Ar 33.1856 50.4885 36.9732
406 1 Ar 22.3028 48.1747 19.3542
407 1 Ar 19.2814 8.43651 28.9306
408 1 Ar 12.0141 24.0719 34.0253
409 1 Ar 13.4486 17.2251 10.1698
410 1 Ar 34.1346 28.2904 57.1686
411 1 Ar 57.3495 26.5218 18.7331
412 1 Ar 17.5275 55.8236 38.2908
413 1 Ar 40.4981 57.6764 3.76094
414 1 Ar 17.9964 16.8228 45.474
415 1 Ar 11.8025 32.2325 20.9439
416 1 Ar 6.58209 8.97656 36.4291
417 1 Ar 41.127 42.8607 20.8124
418 1 Ar 38.0203 14.1629 18.3241
419 1 Ar 26.7047 55.2474 27.4396
420 1 Ar 10.3849 15.4454 10.8461
421 1 Ar 44.6782 10.5663 54.0348
422 1 Ar 14.6582 12.4432 36.5583
423 1 Ar 49.5585 23.2463 2.49292
424 1 Ar 52.3514 0.479706 34.13
425 1 Ar 37.0496 31.9377 42.7228
426 1 Ar 21.6139 39.8991 41.5496
427 1 Ar 17.2827 31.5871 19.5209
428 1 Ar 24.8179 43.4449 40.3717
429 1 Ar 43.4551 33.4173 0.320859
430 1 Ar 6.34601 56.071 58.0821
431 1 Ar 27.5343 5.46375 13.8388
432 1 Ar 55.1735 41.8513 20.0039
433 1 Ar 33.5903 41.1491 55.5036
434 1 Ar 40.5866 26.8887 53.3836
435 1 Ar 55.263 38.8873 25.205
436 1 Ar 35.7783 40.6151 25.093
437 1 Ar 9.5669 1.55506 51.0249
438 1 Ar 34.4569 48.7763 8.20018
439 1 Ar 12.8483 47.7973 11.6869
440 1 Ar 47.606 32.6966 19.507
441 1 Ar 2.74552 57.5469 52.896
442 1 Ar 0.110476 31.7322 55.1464
443 1 Ar 43.6897 48.0798 45.734
444 1 Ar 1.0844 43.2899 14.0133