ITEM: TIMESTEP
-1
ITEM: NUMBER OF ATOMS
500
ITEM: BOX BOUNDS pp pp pp
0 40.3115
0 40.3115
0 40.3115
ITEM: ATOMS id type element xu yu zu
0 1 Ar 0 0 0
1 1 Ar 0 0 4.47905
2 1 Ar 0 0 8.9581
3 1 Ar 0 0 13.4372
4 1 Ar 0 0 17.9162
5 1 Ar 0 0 22.3953
6 1 Ar 0 0 26.8743
7 1 Ar 0 0 31.3534
8 1 Ar 0 4.47905 0
9 1 Ar 0 4.47905 4.47905
10 1 Ar 0 4.47905 8.9581
11 1 Ar 0 4.47905 13.4372
12 1 Ar 0 4.47905 17.9162
13 1 Ar 0 4.47905 22.3953
14 1 Ar 0 4.47905 26.8743
15 1 Ar 0 4.47905 31.3534
16 1 Ar 0 8.9581 0
17 1 Ar 0 8.9581 4.47905
18 1 Ar 0 8.9581 8.9581
19 1 Ar 0 8.9581 13.4372
20 1 Ar 0 8.9581 17.9162
21 1 Ar 0 8.9581 22.3953
22 1 Ar 0 8.9581 26.8743
23 1 Ar 0 8.9581 31.3534
24 1 Ar 0 13.4372 0
25 1 Ar 0 13.4372 4.47905
26 1 Ar 0 13.4372 8.9581
27 1 Ar 0 13.4372 13.4372
28 1 Ar 0 13.4372 17.9162
29 1 Ar 0 13.4372 22.3953
30 1 Ar 0 13.4372 26.8743
31 1 Ar 0 13.4372 31.3534
32 1 Ar 0 17.9162 0
33 1 Ar 0 17.9162 4.47905
34 1 Ar 0 17.9162 8.9581
35 1 Ar 0 17.9162 13.4372
36 1 Ar 0 17.9162 17.9162
37 1 Ar 0 17.9162 22.3953
38 1 Ar 0 17.9162 26.8743
39 1 Ar 0 17.9162 31.3534
40 1 Ar 0 22.3953 0
41 1 Ar 0 22.3953 4.47905
42 1 Ar 0 22.3953 8.9581
43 1 Ar 0 22.3953 13.4372
44 1 Ar 0 22.3953 17.9162
45 1 Ar 0 22.3953 22.3953
46 1 Ar 0 22.3953 26.8743
47 1 Ar 0 22.3953 31.3534
48 1 Ar 0 26.8743 0
49 1 Ar 0 26.8743 4.47905
50 1 Ar 0 26.8743 8.9581
51 1 Ar 0 26.8743 13.4372
52 1 Ar 0 26.8743 17.9162
53 1 Ar 0 26.8743 22.3953
54 1 Ar 0 26.8743 26.8743
55 1 Ar 0 26.8743 31.3534
56 1 Ar 0 31.3534 0
57 1 Ar 0 31.3534 4.47905
58 1 Ar 0 31.3534 8.9581
59 1 Ar 0 31.3534 13.4372
60 1 Ar 0 31.3534 17.9162
61 1 Ar 0 31.3534 22.3953
62 1 Ar 0 31.3534 26.8743
63 1 Ar 0 31.3534 31.3534
64 1 Ar 4.47905 0 0
65 1 Ar 4.47905 0 4.47905
66 1 Ar 4.47905 0 8.9581
67 1 Ar 4.47905 0 13.4372
68 1 Ar 4.47905 0 17.9162
69 1 Ar 4.47905 0 22.3953
70 1 Ar 4.47905 0 26.8743
71 1 Ar 4.47905 0 31.3534
72 1 Ar 4.47905 4.47905 0
73 1 Ar 4.47905 4.47905 4.47905
74 1 Ar 4.47905 4.47905 8.9581
75 1 Ar 4.47905 4.47905 13.4372
76 1 Ar 4.47905 4.47905 17.9162
77 1 Ar 4.47905 4.47905 22.3953
78 1 Ar 4.47905 4.47905 26.8743
79 1 Ar 4.47905 4.47905 31.3534
80 1 Ar 4.47905 8.9581 0
81 1 Ar 4.47905 8.9581 4.47905
82 1 Ar 4.47905 8.9581 8.9581
83 1 Ar 4.47905 8.9581 13.4372
84 1 Ar 4.47905 8.9581 17.9162
85 1 Ar 4.47905 8.9581 22.3953
86 1 Ar 4.47905 8.9581 26.8743
87 1 Ar 4.47905 8.9581 31.3534
88 1 Ar 4.47905 13.4372 0
89 1 Ar 4.47905 13.4372 4.47905
90 1 Ar 4.47905 13.4372 8.9581
91 1 Ar 4.47905 13.4372 13.4372
92 1 Ar 4.47905 13.4372 17.9162
93 1 Ar 4.47905 13.4372 22.3953
94 1 Ar 4.47905 13.4372 26.8743
95 1 Ar 4.47905 13.4372 31.3534
96 1 Ar 4.47905 17.9162 0
97 1 Ar 4.47905 17.9162 4.47905
98 1 Ar 4.47905 17.9162 8.9581
99 1 Ar 4.47905 17.9162 13.4372
100 1 Ar 4.47905 17.9162 17.9162
101 1 Ar 4.47905 17.9162 22.3953
102 1 Ar 4.47905 17.9162 26.8743
103 1 Ar 4.47905 17.9162 31.3534
104 1 Ar 4.47905 22.3953 0
105 1 Ar 4.47905 22.3953 4.47905
106 1 Ar 4.47905 22.3953 8.9581
107 1 Ar 4.47905 22.3953 13.4372
108 1 Ar 4.47905 22.3953 17.9162
109 1 Ar 4.47905 22.3953 22.3953
110 1 Ar 4.47905 22.3953 26.8743
111 1 Ar 4.47905 22.3953 31.3534
112 1 Ar 4.47905 26.8743 0
113 1 Ar 4.47905 26.8743 4.47905
114 1 Ar 4.47905 26.8743 8.9581
115 1 Ar 4.47905 26.8743 13.4372
116 1 Ar 4.47905 26.8743 17.9162
117 1 Ar 4.47905 26.8743 22.3953
118 1 Ar 4.47905 26.8743 26.8743
119 1 Ar 4.47905 26.8743 31.3534
120 1 Ar 4.47905 31.3534 0
121 1 Ar 4.47905 31.3534 4.47905
122 1 Ar 4.47905 31.3534 8.9581
123 1 Ar 4.47905 31.3534 13.4372
124 1 Ar 4.47905 31.3534 17.9162
125 1 Ar 4.47905 31.3534 22.3953
126 1 Ar 4.47905 31.3534 26.8743
127 1 Ar 4.47905 31.3534 31.3534
128 1 Ar 8.9581 0 0
129 1 Ar 8.9581 0 4.47905
130 1 Ar 8.9581 0 8.9581
131 1 Ar 8.9581 0 13.4372
132 1 Ar 8.9581 0 17.9162
133 1 Ar 8.9581 0 22.3953
134 1 Ar 8.9581 0 26.8743
135 1 Ar 8.9581 0 31.3534
136 1 Ar 8.9581 4.47905 0
137 1 Ar 8.9581 4.47905 4.47905
138 1 Ar 8.9581 4.47905 8.9581
139 1 Ar 8.9581 4.47905 13.4372
140 1 Ar 8.9581 4.47905 17.9162
141 1 Ar 8.9581 4.47905 22.3953
142 1 Ar 8.9581 4.47905 26.8743
143 1 Ar 8.9581 4.47905 31.3534
144 1 Ar 8.9581 8.9581 0
145 1 Ar 8.9581 8.9581 4.47905
146 1 Ar 8.9581 8.9581 8.9581
147 1 Ar 8.9581 8.9581 13.4372
148 1 Ar 8.9581 8.9581 17.9162
149 1 Ar 8.9581 8.9581 22.3953
150 1 Ar 8.9581 8.9581 26.8743
151 1 Ar 8.9581 8.9581 31.3534
152 1 Ar 8.9581 13.4372 0
153 1 Ar 8.9581 13.4372 4.47905
154 1 Ar 8.9581 13.4372 8.9581
155 1 Ar 8.9581 13.4372 13.4372
156 1 Ar 8.9581 13.4372 17.9162
157 1 Ar 8.9581 13.4372 22.3953
158 1 Ar 8.9581 13.4372 26.8743
159 1 Ar 8.9581 13.4372 31.3534
160 1 Ar 8.9581 17.9162 0
161 1 Ar 8.9581 17.9162 4.47905
162 1 Ar 8.9581 17.9162 8.9581
163 1 Ar 8.9581 17.9162 13.4372
164 1 Ar 8.9581 17.9162 17.9162
165 1 Ar 8.9581 17.9162 22.3953
166 1 Ar 8.9581 17.9162 26.8743
167 1 Ar 8.9581 17.9162 31.3534
168 1 Ar 8.9581 22.3953 0
169 1 Ar 8.9581 22.3953 4.47905
170 1 Ar 8.9581 22.3953 8.9581
171 1 Ar 8.9581 22.3953 13.4372
172 1 Ar 8.9581 22.3953 17.9162
173 1 Ar 8.9581 22.3953 22.3953
174 1 Ar 8.9581 22.3953 26.8743
175 1 Ar 8.9581 22.3953 31.3534
176 1 Ar 8.9581 26.8743 0
177 1 Ar 8.9581 26.8743 4.47905
178 1 Ar 8.9581 26.8743 8.9581
179 1 Ar 8.9581 26.8743 13.4372
180 1 Ar 8.9581 26.8743 17.9162
181 1 Ar 8.9581 26.8743 22.3953
182 1 Ar 8.9581 26.8743 26.8743
183 1 Ar 8.9581 26.8743 31.3534
184 1 Ar 8.9581 31.3534 0
185 1 Ar 8.9581 31.3534 4.47905
186 1 Ar 8.9581 31.3534 8.9581
187 1 Ar 8.9581 31.3534 13.4372
188 1 Ar 8.9581 31.3534 17.9162
189 1 Ar 8.9581 31.3534 22.3953
190 1 Ar 8.9581 31.3534 26.8743
191 1 Ar 8.9581 31.3534 31.3534
192 1 Ar 13.4372 0 0
193 1 Ar 13.4372 0 4.47905
194 1 Ar 13.4372 0 8.9581
195 1 Ar 13.4372 0 13.4372
196 1 Ar 13.4372 0 17.9162
197 1 Ar 13.4372 0 22.3953
198 1 Ar 13.4372 0 26.8743
199 1 Ar 13.4372 0 31.3534
200 1 Ar 13.4372 4.47905 0
201 1 Ar 13.4372 4.47905 4.47905
202 1 Ar 13.4372 4.47905 8.9581
203 1 Ar 13.4372 4.47905 13.4372
204 1 Ar 13.4372 4.47905 17.9162
205 1 Ar 13.4372 4.47905 22.3953
206 1 Ar 13.4372 4.47905 26.8743
207 1 Ar 13.4372 4.47905 31.3534
208 1 Ar 13.4372 8.9581 0
209 1 Ar 13.4372 8.9581 4.47905
210 1 Ar 13.4372 8.9581 8.9581
211 1 Ar 13.4372 8.9581 13.4372
212 1 Ar 13.4372 8.9581 17.9162
213 1 Ar 13.4372 8.9581 22.3953
214 1 Ar 13.4372 8.9581 26.8743
215 1 Ar 13.4372 8.9581 31.3534
216 1 Ar 13.4372 13.4372 0
217 1 Ar 13.4372 13.4372 4.47905
218 1 Ar 13.4372 13.4372 8.9581
219 1 Ar 13.4372 13.4372 13.4372
220 1 Ar 13.4372 13.4372 17.9162
221 1 Ar 13.4372 13.4372 22.3953
222 1 Ar 13.4372 13.4372 26.8743
223 1 Ar 13.4372 13.4372 31.3534
224 1 Ar 13.4372 17.9162 0
225 1 Ar 13.4372 17.9162 4.47905
226 1 Ar 13.4372 17.9162 8.9581
227 1 Ar 13.4372 17.9162 13.4372
228 1 Ar 13.4372 17.9162 17.9162
229 1 Ar 13.4372 17.9162 22.3953
230 1 Ar 13.4372 17.9162 26.8743
231 1 Ar 13.4372 17.9162 31.3534
232 1 Ar 13.4372 22.3953 0
233 1 Ar 13.4372 22.3953 4.47905
234 1 Ar 13.4372 22.3953 8.9581
235 1 Ar 13.4372 22.3953 13.4372
236 1 Ar 13.4372 22.3953 17.9162
237 1 Ar 13.4372 22.3953 22.3953
238 1 Ar 13.4372 22.3953 26.8743
239 1 Ar 13.4372 22.3953 31.3534
240 1 Ar 13.4372 26.8743 0
241 1 Ar 13.4372 26.8743 4.47905
242 1 Ar 13.4372 26.8743 8.9581
243 1 Ar 13.4372 26.8743 13.4372
244 1 Ar 13.4372 26.8743 17.9162
245 1 Ar 13.4372 26.8743 22.3953
246 1 Ar 13.4372 26.8743 26.8743
247 1 Ar 13.4372 26.8743 31.3534
248 1 Ar 13.4372 31.3534 0
249 1 Ar 13.4372 31.3534 4.47905
250 1 Ar 13.4372 31.3534 8.9581
251 1 Ar 13.4372 31.3534 13.4372
252 1 Ar 13.4372 31.3534 17.9162
253 1 Ar 13.4372 31.3534 22.3953
254 1 Ar 13.4372 31.3534 26.8743
255 1 Ar 13.4372 31.3534 31.3534
256 1 Ar 17.9162 0 0
257 1 Ar 17.9162 0 4.47905
258 1 Ar 17.9162 0 8.9581
259 1 Ar 17.9162 0 13.4372
260 1 Ar 17.9162 0 17.9162
261 1 Ar 17.9162 0 22.3953
262 1 Ar 17.9162 0 26.8743
263 1 Ar 17.9162 0 31.3534
264 1 Ar 17.9162 4.47905 0
265 1 Ar 17.9162 4.47905 4.47905
266 1 Ar 17.9162 4.47905 8.9581
267 1 Ar 17.9162 4.47905 13.4372
268 1 Ar 17.9162 4.47905 17.9162
269 1 Ar 17.9162 4.47905 22.3953
270 1 Ar 17.9162 4.47905 26.8743
271 1 Ar 17.9162 4.47905 31.3534
272 1 Ar 17.9162 8.9581 0
273 1 Ar 17.9162 8.9581 4.47905
274 1 Ar 17.9162 8.9581 8.9581
275 1 Ar 17.9162 8.9581 13.4372
276 1 Ar 17.9162 8.9581 17.9162
277 1 Ar 17.9162 8.9581 22.3953
278 1 Ar 17.9162 8.9581 26.8743
279 1 Ar 17.9162 8.9581 31.3534
280 1 Ar 17.9162 13.4372 0
281 1 Ar 17.9162 13.4372 4.47905
282 1 Ar 17.9162 13.4372 8.9581
283 1 Ar 17.9162 13.4372 13.4372
284 1 Ar 17.9162 13.4372 17.9162
285 1 Ar 17.9162 13.4372 22.3953
286 1 Ar 17.9162 13.4372 26.8743
287 1 Ar 17.9162 13.4372 31.3534
288 1 Ar 17.9162 17.9162 0
289 1 Ar 17.9162 17.9162 4.47905
290 1 Ar 17.9162 17.9162 8.9581
291 1 Ar 17.9162 17.9162 13.4372
292 1 Ar 17.9162 17.9162 17.9162
293 1 Ar 17.9162 17.9162 22.3953
294 1 Ar 17.9162 17.9162 26.8743
295 1 Ar 17.9162 17.9162 31.3534
296 1 Ar 17.9162 22.3953 0
297 1 Ar 17.9162 22.3953 4.47905
298 1 Ar 17.9162 22.3953 8.9581
299 1 Ar 17.9162 22.3953 13.4372
300 1 Ar 17.9162 22.3953 17.9162
301 1 Ar 17.9162 22.3953 22.3953
302 1 Ar 17.9162 22.3953 26.8743
303 1 Ar 17.9162 22.3953 31.3534
304 1 Ar 17.9162 26.8743 0
305 1 Ar 17.9162 26.8743 4.47905
306 1 Ar 17.9162 26.8743 8.9581
307 1 Ar 17.9162 26.8743 13.4372
308 1 Ar 17.9162 26.8743 17.9162
309 1 Ar 17.9162 26.8743 22.3953
310 1 Ar 17.9162 26.8743 26.8743
311 1 Ar 17.9162 26.8743 31.3534
312 1 Ar 17.9162 31.3534 0
313 1 Ar 17.9162 31.3534 4.47905
314 1 Ar 17.9162 31.3534 8.9581
315 1 Ar 17.9162 31.3534 13.4372
316 1 Ar 17.9162 31.3534 17.9162
317 1 Ar 17.9162 31.3534 22.3953
318 1 Ar 17.9162 31.3534 26.8743
319 1 Ar 17.9162 31.3534 31.3534
320 1 Ar 22.3953 0 0
321 1 Ar 22.3953 0 4.47905
322 1 Ar 22.3953 0 8.9581
323 1 Ar 22.3953 0 13.4372
324 1 Ar 22.3953 0 17.9162
325 1 Ar 22.3953 0 22.3953
326 1 Ar 22.3953 0 26.8743
327 1 Ar 22.3953 0 31.3534
328 1 Ar 22.3953 4.47905 0
329 1 Ar 22.3953 4.47905 4.47905
330 1 Ar 22.3953 4.47905 8.9581
331 1 Ar 22.3953 4.47905 13.4372
332 1 Ar 22.3953 4.47905 17.9162
333 1 Ar 22.3953 4.47905 22.3953
334 1 Ar 22.3953 4.47905 26.8743
335 1 Ar 22.3953 4.47905 31.3534
336 1 Ar 22.3953 8.9581 0
337 1 Ar 22.3953 8.9581 4.47905
338 1 Ar 22.3953 8.9581 8.9581
339 1 Ar 22.3953 8.9581 13.4372
340 1 Ar 22.3953 8.9581 17.9162
341 1 Ar 22.3953 8.9581 22.3953
342 1 Ar 22.3953 8.9581 26.8743
343 1 Ar 22.3953 8.9581 31.3534
344 1 Ar 22.3953 13.4372 0
345 1 Ar 22.3953 13.4372 4.47905
346 1 Ar 22.3953 13.4372 8.9581
347 1 Ar 22.3953 13.4372 13.4372
348 1 Ar 22.3953 13.4372 17.9162
349 1 Ar 22.3953 13.4372 22.3953
350 1 Ar 22.3953 13.4372 26.8743
351 1 Ar 22.3953 13.4372 31.3534
352 1 Ar 22.3953 17.9162 0
353 1 Ar 22.3953 17.9162 4.47905
354 1 Ar 22.3953 17.9162 8.9581
355 1 Ar 22.3953 17.9162 13.4372
356 1 Ar 22.3953 17.9162 17.9162
357 1 Ar 22.3953 17.9162 22.3953
358 1 Ar 22.3953 17.9162 26.8743
359 1 Ar 22.3953 17.9162 31.3534
360 1 Ar 22.3953 22.3953 0
361 1 Ar 22.3953 22.3953 4.47905
362 1 Ar 22.3953 22.3953 8.9581
363 1 Ar 22.3953 22.3953 13.4372
364 1 Ar 22.3953 22.3953 17.9162
365 1 Ar 22.3953 22.3953 22.3953
366 1 Ar 22.3953 22.3953 26.8743
367 1 Ar 22.3953 22.3953 31.3534
368 1 Ar 22.3953 26.8743 0
369 1 Ar 22.3953 26.8743 4.47905
370 1 Ar 22.3953 26.8743 8.9581
371 1 Ar 22.3953 26.8743 13.4372
372 1 Ar 22.3953 26.8743 17.9162
373 1 Ar 22.3953 26.8743 22.3953
374 1 Ar 22.3953 26.8743 26.8743
375 1 Ar 22.3953 26.8743 31.3534
376 1 Ar 22.3953 31.3534 0
377 1 Ar 22.3953 31.3534 4.47905
378 1 Ar 22.3953 31.3534 8.9581
379 1 Ar 22.3953 31.3534 13.4372
380 1 Ar 22.3953 31.3534 17.9162
381 1 Ar 22.3953 31.3534 22.3953
382 1 Ar 22.3953 31.3534 26.8743
383 1 Ar 22.3953 31.3534 31.3534
384 1 Ar 26.8743 0 0
385 1 Ar 26.8743 0 4.47905
386 1 Ar 26.8743 0 8.9581
387 1 Ar 26.8743 0 13.4372
388 1 Ar 26.8743 0 17.9162
389 1 Ar 26.8743 0 22.3953
390 1 Ar 26.8743 0 26.8743
391 1 Ar 26.8743 0 31.3534
392 1 Ar 26.8743 4.47905 0
393 1 Ar 26.8743 4.47905 4.47905
394 1 Ar 26.8743 4.47905 8.9581
395 1 Ar 26.8743 4.47905 13.4372
396 1 Ar 26.8743 4.47905 17.9162
397 1 Ar 26.8743 4.47905 22.3953
398 1 Ar 26.8743 4.47905 26.8743
399 1 Ar 26.8743 4.47905 31.3534
400 1 Ar 26.8743 8.9581 0
401 1 Ar 26.8743 8.9581 4.47905
402 1 Ar 26.8743 8.9581 8.9581
403 1 Ar 26.8743 8.9581 13.4372
404 1 Ar 26.8743 8.9581 17.9162
405 1 Ar 26.8743 8.9581 22.3953
406 1 Ar 26.8743 8.9581 26.8743
407 1 Ar 26.8743 8.9581 31.3534
408 1 Ar 26.8743 13.4372 0
409 1 Ar 26.8743 13.4372 4.47905
410 1 Ar 26.8743 13.4372 8.9581
411 1 Ar 26.8743 13.4372 13.4372
412 1 Ar 26.8743 13.4372 17.9162
413 1 Ar 26.8743 13.4372 22.3953
414 1 Ar 26.8743 13.4372 26.8743
415 1 Ar 26.8743 13.4372 31.3534
416 1 Ar 26.8743 17.9162 0
417 1 Ar 26.8743 17.9162 4.47905
418 1 Ar 26.8743 17.9162 8.9581
419 1 Ar 26.8743 17.9162 13.4372
420 1 Ar 26.8743 17.9162 17.9162
421 1 Ar 26.8743 17.9162 22.3953
422 1 Ar 26.8743 17.9162 26.8743
423 1 Ar 26.8743 17.9162 31.3534
424 1 Ar 26.8743 22.3953 0
425 1 Ar 26.8743 22.3953 4.47905
426 1 Ar 26.8743 22.3953 8.9581
427 1 Ar 26.8743 22.3953 13.4372
428 1 Ar 26.8743 22.3953 17.9162
429 1 Ar 26.8743 22.3953 22.3953
430 1 Ar 26.8743 22.3953 26.8743
431 1 Ar 26.8743 22.3953 31.3534
432 1 Ar 26.8743 26.8743 0
433 1 Ar 26.8743 26.8743 4.47905
434 1 Ar 26.8743 26.8743 8.9581
435 1 Ar 26.8743 26.8743 13.4372
436 1 Ar 26.8743 26.8743 17.9162
437 1 Ar 26.8743 26.8743 22.3953
438 1 Ar 26.8743 26.8743 26.8743
439 1 Ar 26.8743 26.8743 31.3534
440 1 Ar 26.8743 31.3534 0
441 1 Ar 26.8743 31.3534 4.47905
442 1 Ar 26.8743 31.3534 8.9581
443 1 Ar 26.8743 31.3534 13.4372
444 1 Ar 26.8743 31.3534 17.9162
445 1 Ar 26.8743 31.3534 22.3953
446 1 Ar 26.8743 31.3534 26.8743
447 1 Ar 26.8743 31.3534 31.3534
448 1 Ar 31.3534 0 0
449 1 Ar 31.3534 0 4.47905
450 1 Ar 31.3534 0 8.9581
451 1 Ar 31.3534 0 13.4372
452 1 Ar 31.3534 0 17.9162
453 1 Ar 31.3534 0 22.3953
454 1 Ar 31.3534 0 26.8743
455 1 Ar 31.3534 0 31.3534
456 1 Ar 31.3534 4.47905 0
457 1 Ar 31.3534 4.47905 4.47905
458 1 Ar 31.3534 4.47905 8.9581
459 1 Ar 31.3534 4.47905 13.4372
460 1 Ar 31.3534 4.47905 17.9162
461 1 Ar 31.3534 4.47905 22.3953
462 1 Ar 31.3534 4.47905 26.8743
463 1 Ar 31.3534 4.47905 31.3534
464 1 Ar 31.3534 8.9581 0
465 1 Ar 31.3534 8.9581 4.47905
466 1 Ar 31.3534 8.9581 8.9581
467 1 Ar 31.3534 8.9581 13.4372
468 1 Ar 31.3534 8.9581 17.9162
469 1 Ar 31.3534 8.9581 22.3953
470 1 Ar 31.3534 8.9581 26.8743
471 1 Ar 31.3534 8.9581 31.3534
472 1 Ar 31.3534 13.4372 0
473 1 Ar 31.3534 13.4372 4.47905
474 1 Ar 31.3534 13.4372 8.9581
475 1 Ar 31.3534 13.4372 13.4372
476 1 Ar 31.3534 13.4372 17.9162
477 1 Ar 31.3534 13.4372 22.3953
478 1 Ar 31.3534 13.4372 26.8743
479 1 Ar 31.3534 13.4372 31.3534
480 1 Ar 31.3534 17.9162 0
481 1 Ar 31.3534 17.9162 4.47905
482 1 Ar 31.3534 17.9162 8.9581
483 1 Ar 31.3534 17.9162 13.4372
484 1 Ar 31.3534 17.9162 17.9162
485 1 Ar 31.3534 17.9162 22.3953
486 1 Ar 31.3534 17.9162 26.8743
487 1 Ar 31.3534 17.9162 31.3534
488 1 Ar 31.3534 22.3953 0
489 1 Ar 31.3534 22.3953 4.47905
490 1 Ar 31.3534 22.3953 8.9581
491 1 Ar 31.3534 22.3953 13.4372
492 1 Ar 31.3534 22.3953 17.9162
493 1 Ar 31.3534 22.3953 22.3953
494 1 Ar 31.3534 22.3953 26.8743
495 1 Ar 31.3534 22.3953 31.3534
496 1 Ar 31.3534 26.8743 0
497 1 Ar 31.3534 26.8743 4.47905
498 1 Ar 31.3534 26.8743 8.9581
499 1 Ar 31.3534 26.8743 13.4372
ITEM: TIMESTEP
19999
ITEM: NUMBER OF ATOMS
500
ITEM: BOX BOUNDS pp pp pp
0 40.3115
0 40.3115
0 40.3115
ITEM: ATOMS id type element xu yu zu
0 1 Ar 38.5618 30.7851 39.1117
1 1 Ar 37.1887 2.0699 2.65497
2 1 Ar 34.7353 9.15427 7.67393
3 1 Ar 35.7689 39.092 14.8892
4 1 Ar 7.05099 37.2285 18.8893
5 1 Ar 0.562732 0.964091 21.4588
6 1 Ar 39.7942 1.11008 28.7938
7 1 Ar 2.9794 38.3274 31.3434
8 1 Ar 0.979208 2.15635 0.201808
9 1 Ar 30.8412 36.6731 31.121
10 1 Ar 3.83898 4.37413 5.65806
11 1 Ar 0.517835 9.02916 16.0602
12 1 Ar 2.22904 2.19635 16.3984
13 1 Ar 0.531772 5.15144 21.4508
14 1 Ar 38.3184 4.64868 24.4107
15 1 Ar 33.4331 5.75749 34.8873
16 1 Ar 31.0176 0.0242041 2.95598
17 1 Ar 2.15438 7.73307 2.93739
18 1 Ar 34.8204 5.95558 8.92862
19 1 Ar 1.58254 8.41156 12.267
20 1 Ar 0.658203 8.70659 19.6655
21 1 Ar 38.4697 8.36999 23.9492
22 1 Ar 0.893531 9.30096 26.4404
23 1 Ar 12.4139 38.5892 38.4609
24 1 Ar 4.93435 6.42206 40.0246
25 1 Ar 38.9127 3.83198 5.60905
26 1 Ar 4.82828 16.7115 1.9444
27 1 Ar 2.75991 13.3301 10.7978
28 1 Ar 38.7642 1.38152 14.2331
29 1 Ar 1.10875 11.0713 23.2949
30 1 Ar 39.2713 13.5683 26.215
31 1 Ar 1.06443 11.8931 28.7904
32 1 Ar 35.6867 18.7208 1.9509
33 1 Ar 29.4418 14.8309 38.0268
34 1 Ar 38.8886 21.1409 6.89896
35 1 Ar 3.08768 18.2003 12.5327
36 1 Ar 5.14792 8.02727 10.0734
37 1 Ar 34.6012 14.0584 24.28
38 1 Ar 36.4745 17.1132 26.5084
39 1 Ar 36.0178 15.0262 35.318
40 1 Ar 17.117 39.0078 31.8894
41 1 Ar 1.68261 24.3186 4.66112
42 1 Ar 10.5273 21.65 7.80698
43 1 Ar 1.95223 21.2288 14.2652
44 1 Ar 32.7284 8.91145 21.8187
45 1 Ar 38.3308 21.5391 14.5282
46 1 Ar 2.94098 28.603 2.3963
47 1 Ar 36.8905 19.0257 29.8733
48 1 Ar 40.2318 26.5415 2.067
49 1 Ar 7.83381 30.895 28.7806
50 1 Ar 0.97061 29.0449 5.38936
51 1 Ar 39.698 22.5073 11.3478
52 1 Ar 36.0831 30.6909 21.4921
53 1 Ar 39.3952 16.8374 21.9431
54 1 Ar 38.1469 18.0705 33.5837
55 1 Ar 0.658545 25.6138 32.7177
56 1 Ar 35.7655 30.9652 2.76203
57 1 Ar 1.10566 34.6001 1.73644
58 1 Ar 33.9805 8.65448 11.8584
59 1 Ar 1.02919 37.9619 8.96368
60 1 Ar 32.4885 27.7108 19.463
61 1 Ar 3.25743 37.8152 22.1309
62 1 Ar 5.40201 25.5782 28.9526
63 1 Ar 0.736245 30.6822 26.9526
64 1 Ar 5.38253 0.454197 38.5265
65 1 Ar 38.3887 39.2587 3.71699
66 1 Ar 7.57136 40.2366 11.1968
67 1 Ar 9.13615 6.98132 16.9701
68 1 Ar 7.52459 1.5798 20.6151
69 1 Ar 3.92279 1.1177 22.8993
70 1 Ar 33.508 2.33187 16.4021
71 1 Ar 7.16708 0.970879 31.7366
72 1 Ar 4.66168 3.45016 35.933
73 1 Ar 6.53605 6.22125 3.96163
74 1 Ar 6.09052 1.50268 8.0271
75 1 Ar 4.40655 4.47592 12.0236
76 1 Ar 7.89832 3.75354 17.8037
77 1 Ar 5.44878 4.67927 22.6323
78 1 Ar 2.66651 5.40665 24.7857
79 1 Ar 1.70977 35.721 34.179
80 1 Ar 4.59104 10.1288 35.4726
81 1 Ar 5.92983 8.67302 6.58733
82 1 Ar 5.92737 11.8127 8.93492
83 1 Ar 5.39759 8.38258 14.1687
84 1 Ar 5.68253 9.74417 17.8667
85 1 Ar 3.44055 8.7549 22.3556
86 1 Ar 5.02929 9.1902 25.6943
87 1 Ar 9.93434 19.982 0.683375
88 1 Ar 3.21952 4.65635 1.89235
89 1 Ar 7.84561 13.6857 2.3048
90 1 Ar 9.76659 12.0227 9.03088
91 1 Ar 5.72052 12.2932 12.6334
92 1 Ar 8.26673 10.8903 15.3463
93 1 Ar 2.07985 15.5652 19.6114
94 1 Ar 3.70303 13.0494 25.8776
95 1 Ar 0.984172 15.4073 30.2466
96 1 Ar 6.55108 22.9858 8.8309
97 1 Ar 14.7068 34.3722 13.8751
98 1 Ar 5.19023 16.0196 9.2143
99 1 Ar 6.19286 16.2959 13.3769
100 1 Ar 3.41337 19.0987 16.7447
101 1 Ar 35.9164 17.8422 20.8991
102 1 Ar 0.415292 17.2065 27.3663
103 1 Ar 3.67445 17.8078 28.9158
104 1 Ar 6.34769 22.1461 0.302983
105 1 Ar 5.09889 24.5434 2.91092
106 1 Ar 13.8405 35.7483 22.1481
107 1 Ar 6.86643 21.0928 12.5447
108 1 Ar 5.77808 24.0687 17.3364
109 1 Ar 34.5407 25.2513 20.9288
110 1 Ar 7.10459 21.7134 27.1007
111 1 Ar 4.25191 21.5301 24.7922
112 1 Ar 8.56929 28.3326 3.98762
113 1 Ar 1.39088 19.2458 8.50796
114 1 Ar 3.01835 25.053 12.2229
115 1 Ar 7.22169 24.4869 5.76248
116 1 Ar 6.3047 23.2128 21.1719
117 1 Ar 1.99663 24.1504 25.0694
118 1 Ar 4.40766 26.532 25.0668
119 1 Ar 2.90475 30.0784 31.1859
120 1 Ar 40.2693 0.743377 7.10838
121 1 Ar 33.1817 21.5389 20.5569
122 1 Ar 2.0187 32.5611 7.1208
123 1 Ar 8.10124 30.2206 13.1877
124 1 Ar 6.45399 31.559 16.1576
125 1 Ar 35.3806 36.9123 27.3095
126 1 Ar 0.556497 4.82951 10.9568
127 1 Ar 3.12929 31.5233 38.0186
128 1 Ar 8.66889 0.546994 0.942569
129 1 Ar 7.43484 0.137672 4.68998
130 1 Ar 11.2482 0.610861 6.33675
131 1 Ar 10.25 38.9579 18.0449
132 1 Ar 13.8272 0.122095 18.9681
133 1 Ar 10.9476 2.16011 20.6527
134 1 Ar 10.0281 2.07361 26.8834
135 1 Ar 8.42444 38.6261 29.1052
136 1 Ar 7.8692 4.20412 39.6979
137 1 Ar 10.3477 3.88632 4.43411
138 1 Ar 9.09137 3.84105 9.24109
139 1 Ar 11.9075 10.4331 14.4534
140 1 Ar 10.0457 5.59567 20.4217
141 1 Ar 8.97869 3.54148 23.31
142 1 Ar 11.7102 5.21223 25.6986
143 1 Ar 11.1729 5.5739 30.905
144 1 Ar 9.6234 7.24026 1.26424
145 1 Ar 9.11709 9.28366 3.97356
146 1 Ar 10.4713 7.30921 8.2843
147 1 Ar 9.0442 10.3545 11.8326
148 1 Ar 8.02388 7.24767 23.0931
149 1 Ar 5.82608 5.15195 26.5957
150 1 Ar 8.52404 7.6054 27.7038
151 1 Ar 6.93104 5.25764 30.6116
152 1 Ar 5.25593 14.3598 38.8023
153 1 Ar 10.5551 12.285 5.25754
154 1 Ar 11.0207 15.8577 5.69652
155 1 Ar 8.83407 13.9229 12.6454
156 1 Ar 12.4173 17.5449 19.7582
157 1 Ar 11.3096 10.0383 27.1947
158 1 Ar 9.74697 14.745 21.9523
159 1 Ar 10.6064 16.6777 27.8776
160 1 Ar 23.8005 8.54492 7.99562
161 1 Ar 11.5122 23.0903 34.8043
162 1 Ar 8.2933 16.5641 10.3169
163 1 Ar 10.8434 19.5169 11.8065
164 1 Ar 8.26526 14.366 17.3113
165 1 Ar 9.4458 18.034 25.1018
166 1 Ar 16.0594 25.7966 10.8141
167 1 Ar 7.45712 16.0777 35.3676
168 1 Ar 8.91134 23.3417 32.2433
169 1 Ar 8.82341 21.9891 4.74913
170 1 Ar 10.5443 23.2736 12.0452
171 1 Ar 9.36797 24.8815 15.3253
172 1 Ar 37.4138 21.7243 26.9515
173 1 Ar 6.97904 19.8723 23.1308
174 1 Ar 2.91992 22.7024 32.6091
175 1 Ar 8.71952 19.0628 29.437
176 1 Ar 5.32163 26.6512 36.3013
177 1 Ar 11.3469 24.8603 6.54756
178 1 Ar 7.96813 29.6904 9.28196
179 1 Ar 7.23833 28.054 16.1513
180 1 Ar 9.04887 25.3955 18.9461
181 1 Ar 10.2354 22.0978 17.6582
182 1 Ar 8.84654 24.8533 23.5251
183 1 Ar 8.75323 25.718 36.7602
184 1 Ar 7.76337 29.923 36.754
185 1 Ar 8.32729 34.6281 6.25388
186 1 Ar 10.5406 33.2295 10.4128
187 1 Ar 36.3082 25.6829 2.2292
188 1 Ar 10.6935 29.5313 21.1425
189 1 Ar 5.78011 30.5202 24.9764
190 1 Ar 3.60554 33.3261 29.6767
191 1 Ar 12.7772 31.9708 35.6696
192 1 Ar 13.3625 0.862469 1.22778
193 1 Ar 15.9658 1.88695 4.35753
194 1 Ar 15.7011 39.6485 7.81055
195 1 Ar 16.2127 3.45408 12.152
196 1 Ar 17.0803 0.775463 15.9608
197 1 Ar 15.143 1.68059 22.1679
198 1 Ar 12.8747 0.321782 25.7566
199 1 Ar 14.6767 2.19128 37.8597
200 1 Ar 12.2773 4.14663 0.386357
201 1 Ar 12.7178 8.06316 4.76641
202 1 Ar 13.088 2.93577 8.61402
203 1 Ar 10.8009 0.191511 14.8144
204 1 Ar 11.8044 2.87867 17.193
205 1 Ar 13.8795 5.50782 20.8517
206 1 Ar 14.7765 6.36177 24.5349
207 1 Ar 15.6118 8.16115 29.8982
208 1 Ar 12.5855 9.90088 0.969545
209 1 Ar 16.1339 8.30226 5.88427
210 1 Ar 13.5497 10.317 8.77638
211 1 Ar 15.0709 6.42066 13.2935
212 1 Ar 11.4988 15.4469 16.7154
213 1 Ar 11.7716 8.38828 22.4727
214 1 Ar 15.3589 19.5316 22.0942
215 1 Ar 10.917 9.01831 30.7295
216 1 Ar 16.9393 9.07603 0.435387
217 1 Ar 14.2229 12.5049 3.62745
218 1 Ar 12.562 13.817 8.27826
219 1 Ar 15.0041 11.4135 11.8449
220 1 Ar 13.856 12.8412 18.2746
221 1 Ar 11.2118 11.8232 22.461
222 1 Ar 13.6499 14.86 27.038
223 1 Ar 36.6825 18.1625 38.3615
224 1 Ar 12.1214 16.521 0.114027
225 1 Ar 13.2771 19.9973 5.53426
226 1 Ar 15.8103 15.4085 10.5811
227 1 Ar 12.3967 15.6383 12.4514
228 1 Ar 15.182 19.6481 16.8608
229 1 Ar 14.4095 22.1924 19.7471
230 1 Ar 29.7974 6.41962 25.0549
231 1 Ar 13.9153 18.9746 38.1892
232 1 Ar 13.3236 23.2397 2.83312
233 1 Ar 16.6593 24.8084 6.53637
234 1 Ar 16.1071 20.3962 8.5333
235 1 Ar 15.4657 20.6576 12.389
236 1 Ar 15.6538 23.9514 15.6393
237 1 Ar 13.3921 23.67 24.8597
238 1 Ar 12.1967 22.2817 28.8118
239 1 Ar 15.7168 20.1883 34.2519
240 1 Ar 13.8089 24.9611 39.875
241 1 Ar 11.3692 27.5396 0.825214
242 1 Ar 11.6541 28.3106 8.27265
243 1 Ar 12.7809 26.6923 12.814
244 1 Ar 17.2213 32.9861 22.7357
245 1 Ar 11.9591 26.9719 24.0258
246 1 Ar 18.0192 27.5047 23.5868
247 1 Ar 11.8121 27.6983 36.7374
248 1 Ar 13.4704 31.7803 3.72442
249 1 Ar 20.5405 31.8341 37.3872
250 1 Ar 14.1589 32.4322 7.80331
251 1 Ar 13.7382 30.4717 12.8364
252 1 Ar 12.9798 26.7816 16.5694
253 1 Ar 10.9577 34.6589 16.4007
254 1 Ar 16.4544 35.459 37.9286
255 1 Ar 15.4435 33.5283 25.985
256 1 Ar 27.5467 38.5897 29.7231
257 1 Ar 18.6911 1.73159 8.90744
258 1 Ar 14.9203 39.4485 11.3871
259 1 Ar 18.1337 0.599245 12.3217
260 1 Ar 19.6877 2.17748 17.7177
261 1 Ar 17.4058 39.4557 19.9939
262 1 Ar 19.1143 34.8794 25.7132
263 1 Ar 22.2842 0.847899 38.1827
264 1 Ar 15.0521 6.5733 2.47975
265 1 Ar 19.715 3.23041 3.12348
266 1 Ar 17.4399 4.94199 7.35001
267 1 Ar 18.752 4.18453 14.4089
268 1 Ar 16.9777 9.39679 22.1044
269 1 Ar 19.7522 5.76124 23.2006
270 1 Ar 19.846 3.40048 25.8589
271 1 Ar 14.6402 4.79046 27.7922
272 1 Ar 17.3331 10.1119 33.9581
273 1 Ar 17.2255 10.6633 8.89695
274 1 Ar 18.5408 8.32676 11.9657
275 1 Ar 16.9197 14.449 15.099
276 1 Ar 18.6246 7.52748 19.3202
277 1 Ar 12.6611 8.37005 17.5853
278 1 Ar 21.6593 8.45442 25.737
279 1 Ar 17.3968 6.82617 26.5363
280 1 Ar 17.4622 4.71797 38.6554
281 1 Ar 13.1602 36.411 11.1158
282 1 Ar 16.9555 17.7079 2.61685
283 1 Ar 15.991 9.06607 16.5516
284 1 Ar 17.5637 11.8957 18.4489
285 1 Ar 15.0033 15.5545 21.9894
286 1 Ar 20.0738 7.40768 28.9979
287 1 Ar 15.1206 11.9899 31.623
288 1 Ar 19.6526 19.5324 2.44618
289 1 Ar 16.7007 15.826 6.93899
290 1 Ar 19.0124 17.38 10.7086
291 1 Ar 18.6932 17.668 14.7864
292 1 Ar 16.8273 14.918 18.5067
293 1 Ar 14.077 18.5504 25.9498
294 1 Ar 17.0269 18.105 31.6736
295 1 Ar 13.6412 16.374 30.4245
296 1 Ar 18.6367 23.5521 39.4707
297 1 Ar 17.6015 23.0772 3.57082
298 1 Ar 21.2217 20.524 11.3021
299 1 Ar 22.4416 25.62 16.5985
300 1 Ar 16.4169 26.7691 18.8423
301 1 Ar 18.8197 21.0507 22.9653
302 1 Ar 15.9658 22.0512 27.1692
303 1 Ar 21.2344 31.3191 27.7985
304 1 Ar 16.5732 26.3659 1.29923
305 1 Ar 13.6775 27.1279 4.85573
306 1 Ar 18.0334 28.2424 8.20419
307 1 Ar 16.2881 28.2775 14.2973
308 1 Ar 20.7578 30.4032 14.1153
309 1 Ar 26.5633 23.1135 25.6243
310 1 Ar 22.1609 26.9571 23.4439
311 1 Ar 17.6861 26.6925 29.6376
312 1 Ar 14.5534 28.7198 39.4125
313 1 Ar 16.9884 30.8713 5.27389
314 1 Ar 17.7305 36.3597 7.46261
315 1 Ar 18.1478 29.9092 11.6567
316 1 Ar 22.8492 37.4999 12.5424
317 1 Ar 18.0016 36.7002 22.3926
318 1 Ar 17.8653 40.032 27.7111
319 1 Ar 11.491 19.3651 31.8411
320 1 Ar 21.0303 0.540206 1.26931
321 1 Ar 23.0817 1.23761 4.41959
322 1 Ar 19.4277 37.644 13.6901
323 1 Ar 21.3343 1.82805 12.0402
324 1 Ar 21.9072 39.4927 15.5694
325 1 Ar 27.5646 31.1069 19.6251
326 1 Ar 22.2563 0.862722 25.4639
327 1 Ar 20.1847 38.8764 35.1369
328 1 Ar 23.3101 4.31313 1.6094
329 1 Ar 18.948 6.50929 4.62001
330 1 Ar 21.7081 4.56076 5.59135
331 1 Ar 21.4616 7.17755 12.9435
332 1 Ar 20.7017 5.90147 16.891
333 1 Ar 21.5914 4.2297 20.337
334 1 Ar 24.7347 5.62493 24.7468
335 1 Ar 24.6443 6.1119 33.5585
336 1 Ar 1.40919 36.8874 19.3653
337 1 Ar 23.6484 8.70615 4.3999
338 1 Ar 18.9356 4.85246 10.9196
339 1 Ar 24.6558 9.15413 14.153
340 1 Ar 23.3476 7.31563 18.7477
341 1 Ar 21.3755 8.4723 21.9606
342 1 Ar 23.9065 9.33149 29.656
343 1 Ar 18.6855 10.8918 4.45837
344 1 Ar 26.9462 4.97466 1.17233
345 1 Ar 20.8004 10.7559 32.6919
346 1 Ar 22.2021 14.645 8.75888
347 1 Ar 20.5688 9.05332 16.7212
348 1 Ar 20.4618 14.3348 17.6952
349 1 Ar 25.6244 13.3074 19.2185
350 1 Ar 20.9519 12.0838 22.5439
351 1 Ar 26.8662 9.31602 33.1716
352 1 Ar 22.7812 18.5325 4.8132
353 1 Ar 18.8338 19.6549 6.02152
354 1 Ar 20.4779 16.3213 5.48968
355 1 Ar 21.5845 19.8752 17.2101
356 1 Ar 19.3987 18.0113 20.4476
357 1 Ar 19.6912 21.9044 19.5256
358 1 Ar 29.9547 16.101 28.7541
359 1 Ar 17.7301 18.1262 39.7563
360 1 Ar 21.4663 22.4224 2.31474
361 1 Ar 21.7721 23.2435 7.68101
362 1 Ar 24.3139 23.4083 10.9475
363 1 Ar 23.9672 21.5408 14.5737
364 1 Ar 23.6668 22.6952 18.9508
365 1 Ar 27.2349 19.8593 18.623
366 1 Ar 21.4928 23.832 25.9101
367 1 Ar 19.3813 23.7038 34.2947
368 1 Ar 7.79186 33.2681 40.2893
369 1 Ar 20.2881 26.4142 4.10549
370 1 Ar 20.0531 25.7874 11.4113
371 1 Ar 24.3079 18.1027 15.5724
372 1 Ar 24.6819 28.7387 16.5905
373 1 Ar 24.2428 23.2395 22.4964
374 1 Ar 24.7671 27.4121 26.1523
375 1 Ar 20.7355 27.7845 27.9777
376 1 Ar 26.9883 32.6266 38.4108
377 1 Ar 19.3354 29.6347 2.73011
378 1 Ar 14.6239 35.8948 5.83483
379 1 Ar 15.3232 38.1199 14.7716
380 1 Ar 22.9249 31.044 18.797
381 1 Ar 25.2492 31.7675 28.7912
382 1 Ar 17.5351 29.8495 35.1505
383 1 Ar 22.9002 32.3948 0.145734
384 1 Ar 23.9693 38.6917 40.2911
385 1 Ar 28.5036 1.64973 5.8458
386 1 Ar 26.4918 0.817145 11.2416
387 1 Ar 22.4782 31.728 11.487
388 1 Ar 28.6679 1.09435 17.7472
389 1 Ar 28.0616 40.2052 21.5376
390 1 Ar 28.9391 4.40551 32.9626
391 1 Ar 33.9029 13.7039 20.8047
392 1 Ar 22.2021 35.3946 9.53372
393 1 Ar 25.546 5.24451 4.42096
394 1 Ar 24.9214 3.22729 9.02625
395 1 Ar 22.741 3.14458 16.0352
396 1 Ar 28.1353 5.31185 17.309
397 1 Ar 25.1252 5.94907 21.234
398 1 Ar 26.4154 4.1945 27.4642
399 1 Ar 32.1789 34.3127 28.6545
400 1 Ar 35.4218 4.73514 5.07219
401 1 Ar 26.669 18.2749 38.7045
402 1 Ar 24.9828 10.2051 10.6045
403 1 Ar 28.6156 8.18323 13.7587
404 1 Ar 27.9668 11.2312 20.2567
405 1 Ar 26.6705 8.84089 23.1096
406 1 Ar 32.396 12.4015 27.0476
407 1 Ar 27.7379 6.7306 30.111
408 1 Ar 25.0561 16.0196 1.32126
409 1 Ar 25.433 16.1093 5.88891
410 1 Ar 26.715 12.9759 7.45864
411 1 Ar 27.3709 13.4703 11.7187
412 1 Ar 27.3706 12.6861 16.3549
413 1 Ar 25.3899 12.1861 22.7376
414 1 Ar 27.791 10.9788 29.9459
415 1 Ar 14.9094 13.2229 39.7548
416 1 Ar 18.791 14.4057 1.80976
417 1 Ar 37.803 9.74785 17.3652
418 1 Ar 32.3522 30.2965 1.10968
419 1 Ar 23.6906 17.1504 12.1209
420 1 Ar 27.8018 17.4753 16.2395
421 1 Ar 26.2248 15.9844 23.6649
422 1 Ar 19.3688 12.612 25.588
423 1 Ar 28.9352 12.6188 33.5653
424 1 Ar 23.2704 22.3289 36.9391
425 1 Ar 23.911 22.9585 4.84555
426 1 Ar 24.2955 20.1263 8.06107
427 1 Ar 26.3672 19.6699 11.8714
428 1 Ar 29.7794 22.606 18.0898
429 1 Ar 30.7881 20.6955 24.3099
430 1 Ar 27.6939 21.8818 22.8014
431 1 Ar 26.3777 20.882 34.444
432 1 Ar 29.6507 31.7959 3.22614
433 1 Ar 32.8616 23.0745 0.505531
434 1 Ar 25.073 24.8898 7.59171
435 1 Ar 25.9424 27.4509 13.2647
436 1 Ar 27.2007 27.7037 18.906
437 1 Ar 30.5723 25.1315 24.8718
438 1 Ar 28.2804 24.9231 28.0075
439 1 Ar 23.0555 29.595 30.4705
440 1 Ar 29.4833 29.4126 38.2122
441 1 Ar 21.5214 36.9833 3.12786
442 1 Ar 27.9102 37.0885 17.23
443 1 Ar 27.6938 36.7625 13.0236
444 1 Ar 29.1213 26.6872 15.5367
445 1 Ar 15.7874 36.6538 2.17247
446 1 Ar 37.4501 31.0894 6.5661
447 1 Ar 20.5214 30.9226 33.5633
448 1 Ar 27.9438 36.0355 38.0387
449 1 Ar 34.6825 0.421073 4.29988
450 1 Ar 30.9849 5.24375 6.60217