ITEM: TIMESTEP
-1
ITEM: NUMBER OF ATOMS
500
ITEM: BOX BOUNDS pp pp pp
0 40.3115
0 40.3115
0 40.3115
ITEM: ATOMS id type element xu yu zu
0 1 Ar 0 0 0
1 1 Ar 0 0 4.47905
2 1 Ar 0 0 8.9581
3 1 Ar 0 0 13.4372
4 1 Ar 0 0 17.9162
5 1 Ar 0 0 22.3953
6 1 Ar 0 0 26.8743
7 1 Ar 0 0 31.3534
8 1 Ar 0 4.47905 0
9 1 Ar 0 4.47905 4.47905
10 1 Ar 0 4.47905 8.9581
11 1 Ar 0 4.47905 13.4372
12 1 Ar 0 4.47905 17.9162
13 1 Ar 0 4.47905 22.3953
14 1 Ar 0 4.47905 26.8743
15 1 Ar 0 4.47905 31.3534
16 1 Ar 0 8.9581 0
17 1 Ar 0 8.9581 4.47905
18 1 Ar 0 8.9581 8.9581
19 1 Ar 0 8.9581 13.4372
20 1 Ar 0 8.9581 17.9162
21 1 Ar 0 8.9581 22.3953
22 1 Ar 0 8.9581 26.8743
23 1 Ar 0 8.9581 31.3534
24 1 Ar 0 13.4372 0
25 1 Ar 0 13.4372 4.47905
26 1 Ar 0 13.4372 8.9581
27 1 Ar 0 13.4372 13.4372
28 1 Ar 0 13.4372 17.9162
29 1 Ar 0 13.4372 22.3953
30 1 Ar 0 13.4372 26.8743
31 1 Ar 0 13.4372 31.3534
32 1 Ar 0 17.9162 0
33 1 Ar 0 17.9162 4.47905
34 1 Ar 0 17.9162 8.9581
35 1 Ar 0 17.9162 13.4372
36 1 Ar 0 17.9162 17.9162
37 1 Ar 0 17.9162 22.3953
38 1 Ar 0 17.9162 26.8743
39 1 Ar 0 17.9162 31.3534
40 1 Ar 0 22.3953 0
41 1 Ar 0 22.3953 4.47905
42 1 Ar 0 22.3953 8.9581
43 1 Ar 0 22.3953 13.4372
44 1 Ar 0 22.3953 17.9162
45 1 Ar 0 22.3953 22.3953
46 1 Ar 0 22.3953 26.8743
47 1 Ar 0 22.3953 31.3534
48 1 Ar 0 26.8743 0
49 1 Ar 0 26.8743 4.47905
50 1 Ar 0 26.8743 8.9581
51 1 Ar 0 26.8743 13.4372
52 1 Ar 0 26.8743 17.9162
53 1 Ar 0 26.8743 22.3953
54 1 Ar 0 26.8743 26.8743
55 1 Ar 0 26.8743 31.3534
56 1 Ar 0 31.3534 0
57 1 Ar 0 31.3534 4.47905
58 1 Ar 0 31.3534 8.9581
59 1 Ar 0 31.3534 13.4372
60 1 Ar 0 31.3534 17.9162
61 1 Ar 0 31.3534 22.3953
62 1 Ar 0 31.3534 26.8743
63 1 Ar 0 31.3534 31.3534
64 1 Ar 4.47905 0 0
65 1 Ar 4.47905 0 4.47905
66 1 Ar 4.47905 0 8.9581
67 1 Ar 4.47905 0 13.4372
68 1 Ar 4.47905 0 17.9162
69 1 Ar 4.47905 0 22.3953
70 1 Ar 4.47905 0 26.8743
71 1 Ar 4.47905 0 31.3534
72 1 Ar 4.47905 4.47905 0
73 1 Ar 4.47905 4.47905 4.47905
74 1 Ar 4.47905 4.47905 8.9581
75 1 Ar 4.47905 4.47905 13.4372
76 1 Ar 4.47905 4.47905 17.9162
77 1 Ar 4.47905 4.47905 22.3953
78 1 Ar 4.47905 4.47905 26.8743
79 1 Ar 4.47905 4.47905 31.3534
80 1 Ar 4.47905 8.9581 0
81 1 Ar 4.47905 8.9581 4.47905
82 1 Ar 4.47905 8.9581 8.9581
83 1 Ar 4.47905 8.9581 13.4372
84 1 Ar 4.47905 8.9581 17.9162
85 1 Ar 4.47905 8.9581 22.3953
86 1 Ar 4.47905 8.9581 26.8743
87 1 Ar 4.47905 8.9581 31.3534
88 1 Ar 4.47905 13.4372 0
89 1 Ar 4.47905 13.4372 4.47905
90 1 Ar 4.47905 13.4372 8.9581
91 1 Ar 4.47905 13.4372 13.4372
92 1 Ar 4.47905 13.4372 17.9162
93 1 Ar 4.47905 13.4372 22.3953
94 1 Ar 4.47905 13.4372 26.8743
95 1 Ar 4.47905 13.4372 31.3534
96 1 Ar 4.47905 17.9162 0
97 1 Ar 4.47905 17.9162 4.47905
98 1 Ar 4.47905 17.9162 8.9581
99 1 Ar 4.47905 17.9162 13.4372
100 1 Ar 4.47905 17.9162 17.9162
101 1 Ar 4.47905 17.9162 22.3953
102 1 Ar 4.47905 17.9162 26.8743
103 1 Ar 4.47905 17.9162 31.3534
104 1 Ar 4.47905 22.3953 0
105 1 Ar 4.47905 22.3953 4.47905
106 1 Ar 4.47905 22.3953 8.9581
107 1 Ar 4.47905 22.3953 13.4372
108 1 Ar 4.47905 22.3953 17.9162
109 1 Ar 4.47905 22.3953 22.3953
110 1 Ar 4.47905 22.3953 26.8743
111 1 Ar 4.47905 22.3953 31.3534
112 1 Ar 4.47905 26.8743 0
113 1 Ar 4.47905 26.8743 4.47905
114 1 Ar 4.47905 26.8743 8.9581
115 1 Ar 4.47905 26.8743 13.4372
116 1 Ar 4.47905 26.8743 17.9162
117 1 Ar 4.47905 26.8743 22.3953
118 1 Ar 4.47905 26.8743 26.8743
119 1 Ar 4.47905 26.8743 31.3534
120 1 Ar 4.47905 31.3534 0
121 1 Ar 4.47905 31.3534 4.47905
122 1 Ar 4.47905 31.3534 8.9581
123 1 Ar 4.47905 31.3534 13.4372
124 1 Ar 4.47905 31.3534 17.9162
125 1 Ar 4.47905 31.3534 22.3953
126 1 Ar 4.47905 31.3534 26.8743
127 1 Ar 4.47905 31.3534 31.3534
128 1 Ar 8.9581 0 0
129 1 Ar 8.9581 0 4.47905
130 1 Ar 8.9581 0 8.9581
131 1 Ar 8.9581 0 13.4372
132 1 Ar 8.9581 0 17.9162
133 1 Ar 8.9581 0 22.3953
134 1 Ar 8.9581 0 26.8743
135 1 Ar 8.9581 0 31.3534
136 1 Ar 8.9581 4.47905 0
137 1 Ar 8.9581 4.47905 4.47905
138 1 Ar 8.9581 4.47905 8.9581
139 1 Ar 8.9581 4.47905 13.4372
140 1 Ar 8.9581 4.47905 17.9162
141 1 Ar 8.9581 4.47905 22.3953
142 1 Ar 8.9581 4.47905 26.8743
143 1 Ar 8.9581 4.47905 31.3534
144 1 Ar 8.9581 8.9581 0
145 1 Ar 8.9581 8.9581 4.47905
146 1 Ar 8.9581 8.9581 8.9581
147 1 Ar 8.9581 8.9581 13.4372
148 1 Ar 8.9581 8.9581 17.9162
149 1 Ar 8.9581 8.9581 22.3953
150 1 Ar 8.9581 8.9581 26.8743
151 1 Ar 8.9581 8.9581 31.3534
152 1 Ar 8.9581 13.4372 0
153 1 Ar 8.9581 13.4372 4.47905
154 1 Ar 8.9581 13.4372 8.9581
155 1 Ar 8.9581 13.4372 13.4372
156 1 Ar 8.9581 13.4372 17.9162
157 1 Ar 8.9581 13.4372 22.3953
158 1 Ar 8.9581 13.4372 26.8743
159 1 Ar 8.9581 13.4372 31.3534
160 1 Ar 8.9581 17.9162 0
161 1 Ar 8.9581 17.9162 4.47905
162 1 Ar 8.9581 17.9162 8.9581
163 1 Ar 8.9581 17.9162 13.4372
164 1 Ar 8.9581 17.9162 17.9162
165 1 Ar 8.9581 17.9162 22.3953
166 1 Ar 8.9581 17.9162 26.8743
167 1 Ar 8.9581 17.9162 31.3534
168 1 Ar 8.9581 22.3953 0
169 1 Ar 8.9581 22.3953 4.47905
170 1 Ar 8.9581 22.3953 8.9581
171 1 Ar 8.9581 22.3953 13.4372
172 1 Ar 8.9581 22.3953 17.9162
173 1 Ar 8.9581 22.3953 22.3953
174 1 Ar 8.9581 22.3953 26.8743
175 1 Ar 8.9581 22.3953 31.3534
176 1 Ar 8.9581 26.8743 0
177 1 Ar 8.9581 26.8743 4.47905
178 1 Ar 8.9581 26.8743 8.9581
179 1 Ar 8.9581 26.8743 13.4372
180 1 Ar 8.9581 26.8743 17.9162
181 1 Ar 8.9581 26.8743 22.3953
182 1 Ar 8.9581 26.8743 26.8743
183 1 Ar 8.9581 26.8743 31.3534
184 1 Ar 8.9581 31.3534 0
185 1 Ar 8.9581 31.3534 4.47905
186 1 Ar 8.9581 31.3534 8.9581
187 1 Ar 8.9581 31.3534 13.4372
188 1 Ar 8.9581 31.3534 17.9162
189 1 Ar 8.9581 31.3534 22.3953
190 1 Ar 8.9581 31.3534 26.8743
191 1 Ar 8.9581 31.3534 31.3534
192 1 Ar 13.4372 0 0
193 1 Ar 13.4372 0 4.47905
194 1 Ar 13.4372 0 8.9581
195 1 Ar 13.4372 0 13.4372
196 1 Ar 13.4372 0 17.9162
197 1 Ar 13.4372 0 22.3953
198 1 Ar 13.4372 0 26.8743
199 1 Ar 13.4372 0 31.3534
200 1 Ar 13.4372 4.47905 0
201 1 Ar 13.4372 4.47905 4.47905
202 1 Ar 13.4372 4.47905 8.9581
203 1 Ar 13.4372 4.47905 13.4372
204 1 Ar 13.4372 4.47905 17.9162
205 1 Ar 13.4372 4.47905 22.3953
206 1 Ar 13.4372 4.47905 26.8743
207 1 Ar 13.4372 4.47905 31.3534
208 1 Ar 13.4372 8.9581 0
209 1 Ar 13.4372 8.9581 4.47905
210 1 Ar 13.4372 8.9581 8.9581
211 1 Ar 13.4372 8.9581 13.4372
212 1 Ar 13.4372 8.9581 17.9162
213 1 Ar 13.4372 8.9581 22.3953
214 1 Ar 13.4372 8.9581 26.8743
215 1 Ar 13.4372 8.9581 31.3534
216 1 Ar 13.4372 13.4372 0
217 1 Ar 13.4372 13.4372 4.47905
218 1 Ar 13.4372 13.4372 8.9581
219 1 Ar 13.4372 13.4372 13.4372
220 1 Ar 13.4372 13.4372 17.9162
221 1 Ar 13.4372 13.4372 22.3953
222 1 Ar 13.4372 13.4372 26.8743
223 1 Ar 13.4372 13.4372 31.3534
224 1 Ar 13.4372 17.9162 0
225 1 Ar 13.4372 17.9162 4.47905
226 1 Ar 13.4372 17.9162 8.9581
227 1 Ar 13.4372 17.9162 13.4372
228 1 Ar 13.4372 17.9162 17.9162
229 1 Ar 13.4372 17.9162 22.3953
230 1 Ar 13.4372 17.9162 26.8743
231 1 Ar 13.4372 17.9162 31.3534
232 1 Ar 13.4372 22.3953 0
233 1 Ar 13.4372 22.3953 4.47905
234 1 Ar 13.4372 22.3953 8.9581
235 1 Ar 13.4372 22.3953 13.4372
236 1 Ar 13.4372 22.3953 17.9162
237 1 Ar 13.4372 22.3953 22.3953
238 1 Ar 13.4372 22.3953 26.8743
239 1 Ar 13.4372 22.3953 31.3534
240 1 Ar 13.4372 26.8743 0
241 1 Ar 13.4372 26.8743 4.47905
242 1 Ar 13.4372 26.8743 8.9581
243 1 Ar 13.4372 26.8743 13.4372
244 1 Ar 13.4372 26.8743 17.9162
245 1 Ar 13.4372 26.8743 22.3953
246 1 Ar 13.4372 26.8743 26.8743
247 1 Ar 13.4372 26.8743 31.3534
248 1 Ar 13.4372 31.3534 0
249 1 Ar 13.4372 31.3534 4.47905
250 1 Ar 13.4372 31.3534 8.9581
251 1 Ar 13.4372 31.3534 13.4372
252 1 Ar 13.4372 31.3534 17.9162
253 1 Ar 13.4372 31.3534 22.3953
254 1 Ar 13.4372 31.3534 26.8743
255 1 Ar 13.4372 31.3534 31.3534
256 1 Ar 17.9162 0 0
257 1 Ar 17.9162 0 4.47905
258 1 Ar 17.9162 0 8.9581
259 1 Ar 17.9162 0 13.4372
260 1 Ar 17.9162 0 17.9162
261 1 Ar 17.9162 0 22.3953
262 1 Ar 17.9162 0 26.8743
263 1 Ar 17.9162 0 31.3534
264 1 Ar 17.9162 4.47905 0
265 1 Ar 17.9162 4.47905 4.47905
266 1 Ar 17.9162 4.47905 8.9581
267 1 Ar 17.9162 4.47905 13.4372
268 1 Ar 17.9162 4.47905 17.9162
269 1 Ar 17.9162 4.47905 22.3953
270 1 Ar 17.9162 4.47905 26.8743
271 1 Ar 17.9162 4.47905 31.3534
272 1 Ar 17.9162 8.9581 0
273 1 Ar 17.9162 8.9581 4.47905
274 1 Ar 17.9162 8.9581 8.9581
275 1 Ar 17.9162 8.9581 13.4372
276 1 Ar 17.9162 8.9581 17.9162
277 1 Ar 17.9162 8.9581 22.3953
278 1 Ar 17.9162 8.9581 26.8743
279 1 Ar 17.9162 8.9581 31.3534
280 1 Ar 17.9162 13.4372 0
281 1 Ar 17.9162 13.4372 4.47905
282 1 Ar 17.9162 13.4372 8.9581
283 1 Ar 17.9162 13.4372 13.4372
284 1 Ar 17.9162 13.4372 17.9162
285 1 Ar 17.9162 13.4372 22.3953
286 1 Ar 17.9162 13.4372 26.8743
287 1 Ar 17.9162 13.4372 31.3534
288 1 Ar 17.9162 17.9162 0
289 1 Ar 17.9162 17.9162 4.47905
290 1 Ar 17.9162 17.9162 8.9581
291 1 Ar 17.9162 17.9162 13.4372
292 1 Ar 17.9162 17.9162 17.9162
293 1 Ar 17.9162 17.9162 22.3953
294 1 Ar 17.9162 17.9162 26.8743
295 1 Ar 17.9162 17.9162 31.3534
296 1 Ar 17.9162 22.3953 0
297 1 Ar 17.9162 22.3953 4.47905
298 1 Ar 17.9162 22.3953 8.9581
299 1 Ar 17.9162 22.3953 13.4372
300 1 Ar 17.9162 22.3953 17.9162
301 1 Ar 17.9162 22.3953 22.3953
302 1 Ar 17.9162 22.3953 26.8743
303 1 Ar 17.9162 22.3953 31.3534
304 1 Ar 17.9162 26.8743 0
305 1 Ar 17.9162 26.8743 4.47905
306 1 Ar 17.9162 26.8743 8.9581
307 1 Ar 17.9162 26.8743 13.4372
308 1 Ar 17.9162 26.8743 17.9162
309 1 Ar 17.9162 26.8743 22.3953
310 1 Ar 17.9162 26.8743 26.8743
311 1 Ar 17.9162 26.8743 31.3534
312 1 Ar 17.9162 31.3534 0
313 1 Ar 17.9162 31.3534 4.47905
314 1 Ar 17.9162 31.3534 8.9581
315 1 Ar 17.9162 31.3534 13.4372
316 1 Ar 17.9162 31.3534 17.9162
317 1 Ar 17.9162 31.3534 22.3953
318 1 Ar 17.9162 31.3534 26.8743
319 1 Ar 17.9162 31.3534 31.3534
320 1 Ar 22.3953 0 0
321 1 Ar 22.3953 0 4.47905
322 1 Ar 22.3953 0 8.9581
323 1 Ar 22.3953 0 13.4372
324 1 Ar 22.3953 0 17.9162
325 1 Ar 22.3953 0 22.3953
326 1 Ar 22.3953 0 26.8743
327 1 Ar 22.3953 0 31.3534
328 1 Ar 22.3953 4.47905 0
329 1 Ar 22.3953 4.47905 4.47905
330 1 Ar 22.3953 4.47905 8.9581
331 1 Ar 22.3953 4.47905 13.4372
332 1 Ar 22.3953 4.47905 17.9162
333 1 Ar 22.3953 4.47905 22.3953
334 1 Ar 22.3953 4.47905 26.8743
335 1 Ar 22.3953 4.47905 31.3534
336 1 Ar 22.3953 8.9581 0
337 1 Ar 22.3953 8.9581 4.47905
338 1 Ar 22.3953 8.9581 8.9581
339 1 Ar 22.3953 8.9581 13.4372
340 1 Ar 22.3953 8.9581 17.9162
341 1 Ar 22.3953 8.9581 22.3953
342 1 Ar 22.3953 8.9581 26.8743
343 1 Ar 22.3953 8.9581 31.3534
344 1 Ar 22.3953 13.4372 0
345 1 Ar 22.3953 13.4372 4.47905
346 1 Ar 22.3953 13.4372 8.9581
347 1 Ar 22.3953 13.4372 13.4372
348 1 Ar 22.3953 13.4372 17.9162
349 1 Ar 22.3953 13.4372 22.3953
350 1 Ar 22.3953 13.4372 26.8743
351 1 Ar 22.3953 13.4372 31.3534
352 1 Ar 22.3953 17.9162 0
353 1 Ar 22.3953 17.9162 4.47905
354 1 Ar 22.3953 17.9162 8.9581
355 1 Ar 22.3953 17.9162 13.4372
356 1 Ar 22.3953 17.9162 17.9162
357 1 Ar 22.3953 17.9162 22.3953
358 1 Ar 22.3953 17.9162 26.8743
359 1 Ar 22.3953 17.9162 31.3534
360 1 Ar 22.3953 22.3953 0
361 1 Ar 22.3953 22.3953 4.47905
362 1 Ar 22.3953 22.3953 8.9581
363 1 Ar 22.3953 22.3953 13.4372
364 1 Ar 22.3953 22.3953 17.9162
365 1 Ar 22.3953 22.3953 22.3953
366 1 Ar 22.3953 22.3953 26.8743
367 1 Ar 22.3953 22.3953 31.3534
368 1 Ar 22.3953 26.8743 0
369 1 Ar 22.3953 26.8743 4.47905
370 1 Ar 22.3953 26.8743 8.9581
371 1 Ar 22.3953 26.8743 13.4372
372 1 Ar 22.3953 26.8743 17.9162
373 1 Ar 22.3953 26.8743 22.3953
374 1 Ar 22.3953 26.8743 26.8743
375 1 Ar 22.3953 26.8743 31.3534
376 1 Ar 22.3953 31.3534 0
377 1 Ar 22.3953 31.3534 4.47905
378 1 Ar 22.3953 31.3534 8.9581
379 1 Ar 22.3953 31.3534 13.4372
380 1 Ar 22.3953 31.3534 17.9162
381 1 Ar 22.3953 31.3534 22.3953
382 1 Ar 22.3953 31.3534 26.8743
383 1 Ar 22.3953 31.3534 31.3534
384 1 Ar 26.8743 0 0
385 1 Ar 26.8743 0 4.47905
386 1 Ar 26.8743 0 8.9581
387 1 Ar 26.8743 0 13.4372
388 1 Ar 26.8743 0 17.9162
389 1 Ar 26.8743 0 22.3953
390 1 Ar 26.8743 0 26.8743
391 1 Ar 26.8743 0 31.3534
392 1 Ar 26.8743 4.47905 0
393 1 Ar 26.8743 4.47905 4.47905
394 1 Ar 26.8743 4.47905 8.9581
395 1 Ar 26.8743 4.47905 13.4372
396 1 Ar 26.8743 4.47905 17.9162
397 1 Ar 26.8743 4.47905 22.3953
398 1 Ar 26.8743 4.47905 26.8743
399 1 Ar 26.8743 4.47905 31.3534
400 1 Ar 26.8743 8.9581 0
401 1 Ar 26.8743 8.9581 4.47905
402 1 Ar 26.8743 8.9581 8.9581
403 1 Ar 26.8743 8.9581 13.4372
404 1 Ar 26.8743 8.9581 17.9162
405 1 Ar 26.8743 8.9581 22.3953
406 1 Ar 26.8743 8.9581 26.8743
407 1 Ar 26.8743 8.9581 31.3534
408 1 Ar 26.8743 13.4372 0
409 1 Ar 26.8743 13.4372 4.47905
410 1 Ar 26.8743 13.4372 8.9581
411 1 Ar 26.8743 13.4372 13.4372
412 1 Ar 26.8743 13.4372 17.9162
413 1 Ar 26.8743 13.4372 22.3953
414 1 Ar 26.8743 13.4372 26.8743
415 1 Ar 26.8743 13.4372 31.3534
416 1 Ar 26.8743 17.9162 0
417 1 Ar 26.8743 17.9162 4.47905
418 1 Ar 26.8743 17.9162 8.9581
419 1 Ar 26.8743 17.9162 13.4372
420 1 Ar 26.8743 17.9162 17.9162
421 1 Ar 26.8743 17.9162 22.3953
422 1 Ar 26.8743 17.9162 26.8743
423 1 Ar 26.8743 17.9162 31.3534
424 1 Ar 26.8743 22.3953 0
425 1 Ar 26.8743 22.3953 4.47905
426 1 Ar 26.8743 22.3953 8.9581
427 1 Ar 26.8743 22.3953 13.4372
428 1 Ar 26.8743 22.3953 17.9162
429 1 Ar 26.8743 22.3953 22.3953
430 1 Ar 26.8743 22.3953 26.8743
431 1 Ar 26.8743 22.3953 31.3534
432 1 Ar 26.8743 26.8743 0
433 1 Ar 26.8743 26.8743 4.47905
434 1 Ar 26.8743 26.8743 8.9581
435 1 Ar 26.8743 26.8743 13.4372
436 1 Ar 26.8743 26.8743 17.9162
437 1 Ar 26.8743 26.8743 22.3953
438 1 Ar 26.8743 26.8743 26.8743
439 1 Ar 26.8743 26.8743 31.3534
440 1 Ar 26.8743 31.3534 0
441 1 Ar 26.8743 31.3534 4.47905
442 1 Ar 26.8743 31.3534 8.9581
443 1 Ar 26.8743 31.3534 13.4372
444 1 Ar 26.8743 31.3534 17.9162
445 1 Ar 26.8743 31.3534 22.3953
446 1 Ar 26.8743 31.3534 26.8743
447 1 Ar 26.8743 31.3534 31.3534
448 1 Ar 31.3534 0 0
449 1 Ar 31.3534 0 4.47905
450 1 Ar 31.3534 0 8.9581
451 1 Ar 31.3534 0 13.4372
452 1 Ar 31.3534 0 17.9162
453 1 Ar 31.3534 0 22.3953
454 1 Ar 31.3534 0 26.8743
455 1 Ar 31.3534 0 31.3534
456 1 Ar 31.3534 4.47905 0
457 1 Ar 31.3534 4.47905 4.47905
458 1 Ar 31.3534 4.47905 8.9581
459 1 Ar 31.3534 4.47905 13.4372
460 1 Ar 31.3534 4.47905 17.9162
461 1 Ar 31.3534 4.47905 22.3953
462 1 Ar 31.3534 4.47905 26.8743
463 1 Ar 31.3534 4.47905 31.3534
464 1 Ar 31.3534 8.9581 0
465 1 Ar 31.3534 8.9581 4.47905
466 1 Ar 31.3534 8.9581 8.9581
467 1 Ar 31.3534 8.9581 13.4372
468 1 Ar 31.3534 8.9581 17.9162
469 1 Ar 31.3534 8.9581 22.3953
470 1 Ar 31.3534 8.9581 26.8743
471 1 Ar 31.3534 8.9581 31.3534
472 1 Ar 31.3534 13.4372 0
473 1 Ar 31.3534 13.4372 4.47905
474 1 Ar 31.3534 13.4372 8.9581
475 1 Ar 31.3534 13.4372 13.4372
476 1 Ar 31.3534 13.4372 17.9162
477 1 Ar 31.3534 13.4372 22.3953
478 1 Ar 31.3534 13.4372 26.8743
479 1 Ar 31.3534 13.4372 31.3534
480 1 Ar 31.3534 17.9162 0
481 1 Ar 31.3534 17.9162 4.47905
482 1 Ar 31.3534 17.9162 8.9581
483 1 Ar 31.3534 17.9162 13.4372
484 1 Ar 31.3534 17.9162 17.9162
485 1 Ar 31.3534 17.9162 22.3953
486 1 Ar 31.3534 17.9162 26.8743
487 1 Ar 31.3534 17.9162 31.3534
488 1 Ar 31.3534 22.3953 0
489 1 Ar 31.3534 22.3953 4.47905
490 1 Ar 31.3534 22.3953 8.9581
491 1 Ar 31.3534 22.3953 13.4372
492 1 Ar 31.3534 22.3953 17.9162
493 1 Ar 31.3534 22.3953 22.3953
494 1 Ar 31.3534 22.3953 26.8743
495 1 Ar 31.3534 22.3953 31.3534
496 1 Ar 31.3534 26.8743 0
497 1 Ar 31.3534 26.8743 4.47905
498 1 Ar 31.3534 26.8743 8.9581
499 1 Ar 31.3534 26.8743 13.4372
ITEM: TIMESTEP
19999
ITEM: NUMBER OF ATOMS
500
ITEM: BOX BOUNDS pp pp pp
0 40.3115
0 40.3115
0 40.3115
ITEM: ATOMS id type element xu yu zu
0 1 Ar 36.7332 7.79339 32.6733
1 1 Ar 31.3579 38.7551 8.85417
2 1 Ar 40.1019 39.6979 8.60133
3 1 Ar 35.809 39.7495 14.1648
4 1 Ar 11.3215 33.5098 21.8628
5 1 Ar 31.0407 1.61045 27.5858
6 1 Ar 35.3433 12.4468 26.6508
7 1 Ar 4.28291 39.4731 32.944
8 1 Ar 1.65838 10.9613 0.53115
9 1 Ar 38.4309 14.535 39.6985
10 1 Ar 1.92456 3.74392 9.65782
11 1 Ar 4.49937 3.25316 18.0058
12 1 Ar 1.60242 1.14545 22.3928
13 1 Ar 5.14257 1.71883 23.5225
14 1 Ar 2.1468 5.65526 27.6159
15 1 Ar 32.0575 33.8938 34.4801
16 1 Ar 39.1319 9.548 37.1613
17 1 Ar 34.8337 6.22086 11.2185
18 1 Ar 2.8081 10.7258 12.5624
19 1 Ar 39.2257 6.60187 13.587
20 1 Ar 9.88529 6.7305 8.5916
21 1 Ar 0.206844 8.18667 23.7218
22 1 Ar 37.8493 1.29049 22.9933
23 1 Ar 36.2951 6.69163 37.5201
24 1 Ar 34.7286 19.0267 3.40137
25 1 Ar 2.38273 17.5726 3.50137
26 1 Ar 2.93221 11.8489 8.69278
27 1 Ar 37.8108 8.92872 10.8604
28 1 Ar 35.1471 9.67111 13.298
29 1 Ar 38.8835 15.4895 14.4608
30 1 Ar 38.4436 14.929 29.7683
31 1 Ar 38.5922 11.0877 32.9211
32 1 Ar 37.487 20.2824 1.01534
33 1 Ar 0.292891 21.0335 2.97268
34 1 Ar 0.636141 17.8882 9.52089
35 1 Ar 33.4276 16.093 12.4757
36 1 Ar 4.58643 17.9112 17.874
37 1 Ar 37.6536 15.3466 24.3984
38 1 Ar 1.50141 17.8611 25.7179
39 1 Ar 4.45116 22.6767 40.0141
40 1 Ar 37.0678 23.4983 40.0308
41 1 Ar 36.9941 21.5785 4.93721
42 1 Ar 35.7641 13.7152 12.2946
43 1 Ar 31.2653 8.03628 12.7549
44 1 Ar 28.0659 13.3746 3.0137
45 1 Ar 40.1431 26.7042 23.3722
46 1 Ar 2.90569 26.7312 29.3727
47 1 Ar 0.53525 21.8228 33.2757
48 1 Ar 6.05373 30.7509 34.8735
49 1 Ar 39.1235 36.3563 11.0953
50 1 Ar 1.4004 23.4088 11.0173
51 1 Ar 2.45923 25.8525 15.5253
52 1 Ar 0.947444 31.8534 20.2836
53 1 Ar 40.0805 25.1995 18.651
54 1 Ar 40.2552 34.5502 22.4132
55 1 Ar 39.7739 26.0804 29.8463
56 1 Ar 33.1168 30.7034 35.0239
57 1 Ar 39.2397 27.1317 0.0809684
58 1 Ar 35.0591 29.2616 5.81749
59 1 Ar 0.0356024 32.9401 9.45497
60 1 Ar 29.7185 27.2459 27.9365
61 1 Ar 0.918705 33.5686 27.2801
62 1 Ar 38.5188 31.3675 30.9906
63 1 Ar 33.9107 26.2119 33.7573
64 1 Ar 7.4828 1.84357 35.8845
65 1 Ar 3.48476 36.6819 34.8694
66 1 Ar 7.05765 0.817808 1.43973
67 1 Ar 0.898332 36.991 16.4165
68 1 Ar 3.51651 40.0918 19.5186
69 1 Ar 1.69787 9.30927 26.7872
70 1 Ar 5.25537 37.9231 23.7609
71 1 Ar 32.3017 9.56734 23.7511
72 1 Ar 13.2607 33.2422 30.2729
73 1 Ar 6.14256 9.12876 2.32485
74 1 Ar 1.2996 4.0684 15.2652
75 1 Ar 2.85662 38.8102 12.2591
76 1 Ar 4.06478 7.18561 19.8966
77 1 Ar 5.36631 5.17771 22.3803
78 1 Ar 3.77428 2.52118 27.8125
79 1 Ar 2.06444 4.85563 31.2983
80 1 Ar 7.84298 9.08409 39.2997
81 1 Ar 9.13621 3.52891 0.448699
82 1 Ar 6.65944 10.6289 12.0276
83 1 Ar 6.39015 8.1289 15.8021
84 1 Ar 7.10345 9.61311 19.2424
85 1 Ar 8.61398 7.55303 22.0637
86 1 Ar 1.65298 4.4052 24.3419
87 1 Ar 5.72801 10.1726 32.6692
88 1 Ar 12.625 11.4893 35.9449
89 1 Ar 5.97074 11.3102 5.39161
90 1 Ar 7.17804 13.2311 8.94313
91 1 Ar 2.55776 15.3468 15.0003
92 1 Ar 4.97331 14.8803 20.5157
93 1 Ar 1.29119 13.2444 26.7771
94 1 Ar 7.77978 12.4613 30.2961
95 1 Ar 2.9966 16.7069 29.751
96 1 Ar 34.2354 31.6647 31.7532
97 1 Ar 5.81204 19.1332 8.40651
98 1 Ar 2.01556 15.3138 6.34167
99 1 Ar 5.31639 15.3963 12.9698
100 1 Ar 6.39471 20.4118 13.6384
101 1 Ar 5.51565 17.2453 23.5818
102 1 Ar 5.88498 16.2446 27.7872
103 1 Ar 7.26057 17.3288 31.2999
104 1 Ar 0.653677 16.8298 38.2961
105 1 Ar 2.51202 20.4216 6.97873
106 1 Ar 4.07164 21.3838 3.31834
107 1 Ar 3.78906 21.0718 11.236
108 1 Ar 0.494546 20.8399 14.953
109 1 Ar 5.00278 22.6191 23.6332
110 1 Ar 3.71565 19.7924 27.9226
111 1 Ar 2.68609 24.4067 32.0432
112 1 Ar 5.64368 25.795 2.23594
113 1 Ar 1.66293 24.2008 1.40117
114 1 Ar 2.98345 28.0975 10.6094
115 1 Ar 4.76684 25.0443 12.8201
116 1 Ar 5.52939 25.6654 17.7308
117 1 Ar 6.10758 25.6402 21.1627
118 1 Ar 3.44015 27.1173 25.265
119 1 Ar 2.26071 31.1946 30.0299
120 1 Ar 10.2732 28.6527 1.71112
121 1 Ar 3.93502 33.179 8.24177
122 1 Ar 5.92859 30.4671 10.1798
123 1 Ar 3.61308 32.5482 13.863
124 1 Ar 3.61151 29.1731 16.8804
125 1 Ar 5.41483 2.18942 14.1553
126 1 Ar 9.09692 29.011 26.1355
127 1 Ar 7.07462 31.4274 31.794
128 1 Ar 10.8895 0.45397 3.91596
129 1 Ar 13.5278 1.97928 7.23188
130 1 Ar 16.9111 28.747 9.10259
131 1 Ar 9.326 2.4913 13.1585
132 1 Ar 7.96081 39.8075 20.6503
133 1 Ar 9.18258 0.367648 24.7901
134 1 Ar 10.0728 32.583 29.0838
135 1 Ar 7.22953 2.45893 30.5821
136 1 Ar 8.08203 10.8549 35.7481
137 1 Ar 6.68637 1.34549 4.86319
138 1 Ar 7.23208 3.49219 8.37644
139 1 Ar 14.1986 33.9845 13.3213
140 1 Ar 13.2167 8.55008 22.4678
141 1 Ar 10.5941 6.25818 25.1712
142 1 Ar 37.5843 1.69891 31.0712
143 1 Ar 15.7529 10.1689 35.4642
144 1 Ar 0.13263 25.7027 36.9961
145 1 Ar 9.66027 11.277 5.59636
146 1 Ar 8.40503 10.0015 8.40785
147 1 Ar 9.98458 11.1323 11.6799
148 1 Ar 8.59753 6.65858 11.8574
149 1 Ar 5.64879 10.1864 25.1149
150 1 Ar 8.99144 9.50037 28.6706
151 1 Ar 3.83687 8.30034 30.2339
152 1 Ar 8.88857 14.7396 1.42836
153 1 Ar 10.2285 16.5414 6.75255
154 1 Ar 10.5834 13.3654 8.72573
155 1 Ar 8.67346 14.1679 15.8744
156 1 Ar 9.34747 13.3246 19.5191
157 1 Ar 10.0457 16.2478 21.8871
158 1 Ar 15.693 15.6702 27.2503
159 1 Ar 12.2052 16.1509 29.5826
160 1 Ar 11.5103 18.7479 33.4127
161 1 Ar 19.5833 12.7554 2.76624
162 1 Ar 8.06234 16.7457 9.90033
163 1 Ar 9.6437 17.8443 12.9596
164 1 Ar 7.68434 17.2578 19.4952
165 1 Ar 8.59016 18.9864 23.4224
166 1 Ar 9.13409 16.3004 27.0164
167 1 Ar 12.4436 15.3018 34.9682
168 1 Ar 12.5856 22.5415 1.2605
169 1 Ar 11.3476 23.0688 7.3635
170 1 Ar 9.98236 21.2234 10.5082
171 1 Ar 6.96721 23.3225 15.5014
172 1 Ar 9.16431 23.0724 18.5698
173 1 Ar 8.4448 22.8238 22.6308
174 1 Ar 10.2057 12.3299 23.4786
175 1 Ar 7.454 24.0979 32.9339
176 1 Ar 13.6108 28.5463 38.6144
177 1 Ar 9.9334 25.4795 3.59475
178 1 Ar 8.35473 25.6119 7.21756
179 1 Ar 9.13082 29.1308 14.0803
180 1 Ar 9.09843 26.976 18.9661
181 1 Ar 8.20633 29.3234 22.1263
182 1 Ar 9.1235 26.2409 23.8358
183 1 Ar 39.7922 0.21282 14.811
184 1 Ar 11.1829 32.697 8.65068
185 1 Ar 6.56653 29.6122 5.3805
186 1 Ar 9.14 31.2456 10.8906
187 1 Ar 8.34483 32.6621 14.5538
188 1 Ar 8.83612 31.0034 19.196
189 1 Ar 9.05676 33.0022 24.2284
190 1 Ar 12.6939 36.1229 24.622
191 1 Ar 0.135378 34.0005 31.0304
192 1 Ar 2.81769 37.4873 8.58127
193 1 Ar 11.6926 38.6414 6.9146
194 1 Ar 13.7698 35.3967 9.70663
195 1 Ar 8.92551 36.81 23.2893
196 1 Ar 15.2188 33.4738 22.9186
197 1 Ar 13.1574 39.5241 11.3117
198 1 Ar 12.7599 2.01981 25.8447
199 1 Ar 21.8321 40.0171 37.2311
200 1 Ar 29.6094 8.52077 35.6762
201 1 Ar 15.2791 14.0948 10.238
202 1 Ar 14.9237 1.23679 13.5696
203 1 Ar 12.6019 3.66786 14.7972
204 1 Ar 12.5792 7.02804 19.5822
205 1 Ar 14.3395 5.58214 27.2338
206 1 Ar 9.26542 3.88298 27.5287
207 1 Ar 10.1763 6.68266 1.54437
208 1 Ar 21.175 1.5877 0.399112
209 1 Ar 12.1426 8.34088 5.84854
210 1 Ar 12.6996 8.52133 12.0343
211 1 Ar 12.5473 14.4305 18.146
212 1 Ar 16.758 17.3285 11.8617
213 1 Ar 16.2737 10.5959 23.9644
214 1 Ar 13.1514 8.51191 26.519
215 1 Ar 9.44264 8.63116 32.6712
216 1 Ar 20.7057 5.72641 40.1172
217 1 Ar 12.3446 13.5298 3.43337
218 1 Ar 13.8151 16.2742 6.29114
219 1 Ar 11.6713 15.0269 12.3869
220 1 Ar 20.0609 17.9202 10.0087
221 1 Ar 13.4975 13.488 21.8429
222 1 Ar 21.1964 14.5159 26.5823
223 1 Ar 15.6967 18.8633 28.3694
224 1 Ar 22.4666 12.9869 38.042
225 1 Ar 12.6986 18.3571 1.61803
226 1 Ar 13.6241 19.0729 8.25766
227 1 Ar 13.525 18.2872 13.4349
228 1 Ar 12.3596 18.0384 17.5213
229 1 Ar 13.1416 17.0243 22.4271
230 1 Ar 8.01567 3.9863 20.6972
231 1 Ar 15.8206 14.1912 31.1859
232 1 Ar 14.5887 25.5408 0.228832
233 1 Ar 12.422 20.6471 4.20448
234 1 Ar 10.648 24.9648 10.9096
235 1 Ar 10.9702 23.8658 15.7399
236 1 Ar 8.46834 19.8205 16.75
237 1 Ar 11.1268 19.6917 20.4347
238 1 Ar 13.4582 28.2713 26.4855
239 1 Ar 16.4473 19.2611 31.8947
240 1 Ar 10.3798 25.4798 39.9889
241 1 Ar 14.0207 25.4985 5.55673
242 1 Ar 10.2722 29.128 7.48143
243 1 Ar 15.6437 26.5631 12.0119
244 1 Ar 11.936 27.4887 15.9274
245 1 Ar 11.6957 25.5623 21.4777
246 1 Ar 16.2469 28.4761 32.3923
247 1 Ar 9.49737 27.5683 37.4644
248 1 Ar 6.22981 29.2155 39.522
249 1 Ar 28.7168 18.6146 8.91762
250 1 Ar 13.0883 29.498 10.8607
251 1 Ar 12.0477 31.9483 15.3914
252 1 Ar 15.2222 28.2822 15.8685
253 1 Ar 8.92802 35.7234 27.2349
254 1 Ar 11.7929 32.2563 26.2493
255 1 Ar 16.74 39.2092 31.3546
256 1 Ar 21.8252 8.25948 37.0799
257 1 Ar 27.6443 1.29157 19.9069
258 1 Ar 22.6173 36.1507 4.88278
259 1 Ar 20.6277 36.5961 13.8125
260 1 Ar 18.0058 40.206 16.2917
261 1 Ar 9.75013 1.58902 16.4941
262 1 Ar 22.2015 36.3133 30.3781
263 1 Ar 15.7823 35.8173 37.3574
264 1 Ar 17.5918 5.54714 2.22812
265 1 Ar 17.2902 2.96038 7.40895
266 1 Ar 19.8321 5.38386 8.41734
267 1 Ar 19.4238 2.57084 12.2424
268 1 Ar 11.473 3.06557 21.5882
269 1 Ar 16.8562 5.09631 22.0891
270 1 Ar 21.367 7.07531 31.8936
271 1 Ar 18.6726 6.26861 36.7167
272 1 Ar 20.2957 10.701 40.2462
273 1 Ar 16.2403 11.2665 3.96914
274 1 Ar 18.2742 11.1431 7.2347
275 1 Ar 20.0817 15.2995 14.0287
276 1 Ar 18.6218 8.11745 16.8311
277 1 Ar 19.4716 8.70073 21.4678
278 1 Ar 17.4254 8.96822 26.961
279 1 Ar 19.5897 10.4518 30.6285
280 1 Ar 24.7794 17.5698 39.2752
281 1 Ar 19.4968 15.8756 4.71291
282 1 Ar 17.8914 15.4151 8.3295
283 1 Ar 15.1166 14.2069 14.701
284 1 Ar 17.3662 15.1035 17.7947
285 1 Ar 16.5934 10.6764 19.4161
286 1 Ar 17.2392 14.1528 24.4287
287 1 Ar 12.6605 13.0681 28.0758
288 1 Ar 16.2062 20.2291 0.996329
289 1 Ar 17.6681 18.4293 6.02828
290 1 Ar 17.5306 20.5454 10.8379
291 1 Ar 19.1097 18.2284 15.7071
292 1 Ar 15.6996 17.7328 19.7085
293 1 Ar 17.1023 17.8891 24.0456
294 1 Ar 13.3186 22.2196 25.4007
295 1 Ar 24.4414 14.4531 34.3201
296 1 Ar 20.201 18.3567 2.26861
297 1 Ar 16.3947 22.171 4.84078
298 1 Ar 15.7583 22.2661 8.37378
299 1 Ar 16.8372 21.5628 14.9331
300 1 Ar 19.3692 21.1786 18.0392
301 1 Ar 14.5485 22.6231 20.5866
302 1 Ar 12.0875 29.8083 18.9936
303 1 Ar 19.1416 22.4176 27.7153
304 1 Ar 14.1372 28.963 2.0765
305 1 Ar 16.8068 26.2037 3.39444
306 1 Ar 19.2278 24.264 11.3641
307 1 Ar 19.9046 29.8594 14.2557
308 1 Ar 18.0478 26.5262 17.1272
309 1 Ar 14.9603 30.9985 19.9469
310 1 Ar 18.7198 25.2628 24.9568
311 1 Ar 17.4058 24.6385 32.3278
312 1 Ar 21.5226 30.7393 38.2296
313 1 Ar 16.1683 30.328 5.36474
314 1 Ar 14.5484 32.3592 8.8606
315 1 Ar 19.6559 31.3969 9.91258
316 1 Ar 18.6093 30.2438 19.3872
317 1 Ar 15.8176 33.5503 26.7971
318 1 Ar 18.6934 27.7209 29.4741
319 1 Ar 6.42855 27.021 28.0283
320 1 Ar 11.0791 3.73118 5.39179
321 1 Ar 24.7683 4.06375 7.03333
322 1 Ar 23.4556 38.908 7.47515
323 1 Ar 17.8492 4.8011 18.2158
324 1 Ar 24.9541 37.5203 20.693
325 1 Ar 14.2919 3.61969 19.3442
326 1 Ar 19.9571 2.12109 27.3176
327 1 Ar 27.1451 33.3042 28.2878
328 1 Ar 23.0993 5.42996 35.4161
329 1 Ar 24.9461 2.53051 1.45053
330 1 Ar 23.5081 6.97648 7.88047
331 1 Ar 19.1486 7.93666 11.4389
332 1 Ar 24.1397 11.3996 21.1732
333 1 Ar 23.2037 4.21243 24.1994
334 1 Ar 22.8118 6.18289 27.4852
335 1 Ar 25.1193 10.7905 37.2196
336 1 Ar 19.3789 11.7321 35.1829
337 1 Ar 19.0991 8.45686 4.63709
338 1 Ar 23.0278 10.4968 9.31642
339 1 Ar 30.7721 11.3593 10.9605
340 1 Ar 27.6456 7.73091 16.7983
341 1 Ar 21.1345 10.9291 23.7785
342 1 Ar 24.9632 8.09255 24.4376
343 1 Ar 22.9862 11.1035 32.2628
344 1 Ar 21.9413 15.481 1.74306
345 1 Ar 21.4298 12.3949 5.79646
346 1 Ar 21.9737 14.1113 9.20823
347 1 Ar 24.3006 14.0899 12.8062
348 1 Ar 21.2852 14.3046 18.2672
349 1 Ar 18.8439 15.5068 21.1507
350 1 Ar 24.7103 10.6443 28.2146
351 1 Ar 19.6524 15.9489 32.9628
352 1 Ar 20.7568 18.7961 35.1495
353 1 Ar 22.3411 18.326 5.975
354 1 Ar 24.5777 17.2287 9.46955
355 1 Ar 22.4031 17.6919 13.2154
356 1 Ar 23.7633 20.7138 17.1951
357 1 Ar 24.5418 11.9743 17.0498
358 1 Ar 19.4012 17.7497 28.249
359 1 Ar 22.0444 18.8805 31.8424
360 1 Ar 24.5077 24.7765 1.69126
361 1 Ar 25.1568 22.4301 8.46275
362 1 Ar 19.6231 21.1404 8.1001
363 1 Ar 22.3552 22.0721 13.0118
364 1 Ar 14.7552 24.5372 16.4837
365 1 Ar 8.17608 21.9785 25.9294
366 1 Ar 24.1522 19.4496 20.632
367 1 Ar 21.6716 28.0773 32.4944
368 1 Ar 20.4108 25.694 2.06831
369 1 Ar 19.7139 24.551 5.54301
370 1 Ar 20.4567 27.7631 8.56964
371 1 Ar 22.1195 26.983 15.4881
372 1 Ar 32.6275 24.4871 15.2462
373 1 Ar 21.6222 32.8663 18.2025
374 1 Ar 20.7952 25.5324 28.2186
375 1 Ar 21.3928 22.8798 39.8108
376 1 Ar 20.9768 31.6138 30.7998
377 1 Ar 22.6053 31.6536 5.79694
378 1 Ar 24.5651 26.4989 9.58703
379 1 Ar 22.3028 32.2754 13.0091
380 1 Ar 15.4344 34.3452 16.3531
381 1 Ar 19.005 35.9204 26.4634
382 1 Ar 26.3534 39.3254 33.1403
383 1 Ar 20.8888 32.161 25.0117
384 1 Ar 29.063 2.67429 0.820846
385 1 Ar 24.8069 0.53232 4.16408
386 1 Ar 30.7463 16.729 2.48117
387 1 Ar 17.3426 34.1239 10.5573
388 1 Ar 29.9554 22.6086 23.7318
389 1 Ar 24.2921 0.230068 25.2291
390 1 Ar 26.6877 0.397705 28.5188
391 1 Ar 25.6196 36.3316 24.2021
392 1 Ar 23.0791 35.5206 8.3834
393 1 Ar 27.3614 3.45786 4.39626
394 1 Ar 28.9678 3.39836 8.99575
395 1 Ar 25.1611 3.04665 14.2098
396 1 Ar 30.0791 2.54365 22.795
397 1 Ar 25.3675 37.6588 16.0859
398 1 Ar 32.9781 14.5292 28.3341
399 1 Ar 26.7811 9.27584 40.1114
400 1 Ar 30.9516 11.3072 1.35617
401 1 Ar 26.4191 7.06073 3.98701
402 1 Ar 27.7649 8.63754 8.63596
403 1 Ar 23.2519 7.14517 11.789
404 1 Ar 28.0869 10.2895 21.0661
405 1 Ar 28.4568 6.46727 25.3626
406 1 Ar 28.0866 10.2441 24.7171
407 1 Ar 27.0369 7.67312 28.5384
408 1 Ar 28.5258 13.927 34.5259
409 1 Ar 25.4839 16.8341 4.82301
410 1 Ar 28.0654 14.0693 10.865
411 1 Ar 26.7367 15.8094 15.3003
412 1 Ar 30.0376 11.3929 15.4924
413 1 Ar 26.9913 13.9458 22.4002
414 1 Ar 25.6819 15.6937 28.1292
415 1 Ar 28.9579 14.3643 30.6843
416 1 Ar 31.0497 20.1288 4.29351
417 1 Ar 27.4855 18.3105 1.52201
418 1 Ar 29.4019 16.6328 6.04792
419 1 Ar 26.508 19.0537 14.2199
420 1 Ar 21.3404 28.3841 19.5374
421 1 Ar 36.9812 26.6922 20.6928
422 1 Ar 25.7145 19.5735 29.266
423 1 Ar 28.0444 17.5746 31.7391
424 1 Ar 26.9824 21.627 37.1313
425 1 Ar 26.8096 22.9599 3.73515
426 1 Ar 33.9243 21.9499 2.02161
427 1 Ar 28.2839 23.2856 11.3521
428 1 Ar 28.7376 22.6873 15.6297
429 1 Ar 25.0993 21.1339 23.7545
430 1 Ar 27.5022 22.7629 26.4845
431 1 Ar 24.5634 24.2981 28.9611
432 1 Ar 19.527 22.1492 33.0617
433 1 Ar 23.7048 27.2729 5.55696
434 1 Ar 27.8577 26.9603 11.0983
435 1 Ar 25.1466 34.7281 18.5226
436 1 Ar 22.851 25.1231 22.9741
437 1 Ar 35.3721 22.9658 22.5712
438 1 Ar 24.5741 26.9674 26.8401
439 1 Ar 32.067 27.5827 37.0243
440 1 Ar 27.3433 36.2288 8.95967
441 1 Ar 29.7005 24.4512 1.3044
442 1 Ar 31.5302 32.1719 15.0608
443 1 Ar 24.8412 31.5487 15.8847
444 1 Ar 28.2814 3.02114 16.1184
445 1 Ar 31.3102 35.6569 29.0949
446 1 Ar 24.7166 32.046 31.5949
447 1 Ar 26.0223 34.217 40.1105
448 1 Ar 30.6881 5.45455 28.1327
449 1 Ar 27.7222 37.4399 5.57291
450 1 Ar 26.4832 40.2437 8.02296