ITEM: TIMESTEP
-1
ITEM: NUMBER OF ATOMS
500
ITEM: BOX BOUNDS pp pp pp
0 34
0 34
0 34
ITEM: ATOMS id type element xu yu zu
0 1 Ar 0 0 0
1 1 Ar 0 0 3.77778
2 1 Ar 0 0 7.55556
3 1 Ar 0 0 11.3333
4 1 Ar 0 0 15.1111
5 1 Ar 0 0 18.8889
6 1 Ar 0 0 22.6667
7 1 Ar 0 0 26.4444
8 1 Ar 0 3.77778 0
9 1 Ar 0 3.77778 3.77778
10 1 Ar 0 3.77778 7.55556
11 1 Ar 0 3.77778 11.3333
12 1 Ar 0 3.77778 15.1111
13 1 Ar 0 3.77778 18.8889
14 1 Ar 0 3.77778 22.6667
15 1 Ar 0 3.77778 26.4444
16 1 Ar 0 7.55556 0
17 1 Ar 0 7.55556 3.77778
18 1 Ar 0 7.55556 7.55556
19 1 Ar 0 7.55556 11.3333
20 1 Ar 0 7.55556 15.1111
21 1 Ar 0 7.55556 18.8889
22 1 Ar 0 7.55556 22.6667
23 1 Ar 0 7.55556 26.4444
24 1 Ar 0 11.3333 0
25 1 Ar 0 11.3333 3.77778
26 1 Ar 0 11.3333 7.55556
27 1 Ar 0 11.3333 11.3333
28 1 Ar 0 11.3333 15.1111
29 1 Ar 0 11.3333 18.8889
30 1 Ar 0 11.3333 22.6667
31 1 Ar 0 11.3333 26.4444
32 1 Ar 0 15.1111 0
33 1 Ar 0 15.1111 3.77778
34 1 Ar 0 15.1111 7.55556
35 1 Ar 0 15.1111 11.3333
36 1 Ar 0 15.1111 15.1111
37 1 Ar 0 15.1111 18.8889
38 1 Ar 0 15.1111 22.6667
39 1 Ar 0 15.1111 26.4444
40 1 Ar 0 18.8889 0
41 1 Ar 0 18.8889 3.77778
42 1 Ar 0 18.8889 7.55556
43 1 Ar 0 18.8889 11.3333
44 1 Ar 0 18.8889 15.1111
45 1 Ar 0 18.8889 18.8889
46 1 Ar 0 18.8889 22.6667
47 1 Ar 0 18.8889 26.4444
48 1 Ar 0 22.6667 0
49 1 Ar 0 22.6667 3.77778
50 1 Ar 0 22.6667 7.55556
51 1 Ar 0 22.6667 11.3333
52 1 Ar 0 22.6667 15.1111
53 1 Ar 0 22.6667 18.8889
54 1 Ar 0 22.6667 22.6667
55 1 Ar 0 22.6667 26.4444
56 1 Ar 0 26.4444 0
57 1 Ar 0 26.4444 3.77778
58 1 Ar 0 26.4444 7.55556
59 1 Ar 0 26.4444 11.3333
60 1 Ar 0 26.4444 15.1111
61 1 Ar 0 26.4444 18.8889
62 1 Ar 0 26.4444 22.6667
63 1 Ar 0 26.4444 26.4444
64 1 Ar 3.77778 0 0
65 1 Ar 3.77778 0 3.77778
66 1 Ar 3.77778 0 7.55556
67 1 Ar 3.77778 0 11.3333
68 1 Ar 3.77778 0 15.1111
69 1 Ar 3.77778 0 18.8889
70 1 Ar 3.77778 0 22.6667
71 1 Ar 3.77778 0 26.4444
72 1 Ar 3.77778 3.77778 0
73 1 Ar 3.77778 3.77778 3.77778
74 1 Ar 3.77778 3.77778 7.55556
75 1 Ar 3.77778 3.77778 11.3333
76 1 Ar 3.77778 3.77778 15.1111
77 1 Ar 3.77778 3.77778 18.8889
78 1 Ar 3.77778 3.77778 22.6667
79 1 Ar 3.77778 3.77778 26.4444
80 1 Ar 3.77778 7.55556 0
81 1 Ar 3.77778 7.55556 3.77778
82 1 Ar 3.77778 7.55556 7.55556
83 1 Ar 3.77778 7.55556 11.3333
84 1 Ar 3.77778 7.55556 15.1111
85 1 Ar 3.77778 7.55556 18.8889
86 1 Ar 3.77778 7.55556 22.6667
87 1 Ar 3.77778 7.55556 26.4444
88 1 Ar 3.77778 11.3333 0
89 1 Ar 3.77778 11.3333 3.77778
90 1 Ar 3.77778 11.3333 7.55556
91 1 Ar 3.77778 11.3333 11.3333
92 1 Ar 3.77778 11.3333 15.1111
93 1 Ar 3.77778 11.3333 18.8889
94 1 Ar 3.77778 11.3333 22.6667
95 1 Ar 3.77778 11.3333 26.4444
96 1 Ar 3.77778 15.1111 0
97 1 Ar 3.77778 15.1111 3.77778
98 1 Ar 3.77778 15.1111 7.55556
99 1 Ar 3.77778 15.1111 11.3333
100 1 Ar 3.77778 15.1111 15.1111
101 1 Ar 3.77778 15.1111 18.8889
102 1 Ar 3.77778 15.1111 22.6667
103 1 Ar 3.77778 15.1111 26.4444
104 1 Ar 3.77778 18.8889 0
105 1 Ar 3.77778 18.8889 3.77778
106 1 Ar 3.77778 18.8889 7.55556
107 1 Ar 3.77778 18.8889 11.3333
108 1 Ar 3.77778 18.8889 15.1111
109 1 Ar 3.77778 18.8889 18.8889
110 1 Ar 3.77778 18.8889 22.6667
111 1 Ar 3.77778 18.8889 26.4444
112 1 Ar 3.77778 22.6667 0
113 1 Ar 3.77778 22.6667 3.77778
114 1 Ar 3.77778 22.6667 7.55556
115 1 Ar 3.77778 22.6667 11.3333
116 1 Ar 3.77778 22.6667 15.1111
117 1 Ar 3.77778 22.6667 18.8889
118 1 Ar 3.77778 22.6667 22.6667
119 1 Ar 3.77778 22.6667 26.4444
120 1 Ar 3.77778 26.4444 0
121 1 Ar 3.77778 26.4444 3.77778
122 1 Ar 3.77778 26.4444 7.55556
123 1 Ar 3.77778 26.4444 11.3333
124 1 Ar 3.77778 26.4444 15.1111
125 1 Ar 3.77778 26.4444 18.8889
126 1 Ar 3.77778 26.4444 22.6667
127 1 Ar 3.77778 26.4444 26.4444
128 1 Ar 7.55556 0 0
129 1 Ar 7.55556 0 3.77778
130 1 Ar 7.55556 0 7.55556
131 1 Ar 7.55556 0 11.3333
132 1 Ar 7.55556 0 15.1111
133 1 Ar 7.55556 0 18.8889
134 1 Ar 7.55556 0 22.6667
135 1 Ar 7.55556 0 26.4444
136 1 Ar 7.55556 3.77778 0
137 1 Ar 7.55556 3.77778 3.77778
138 1 Ar 7.55556 3.77778 7.55556
139 1 Ar 7.55556 3.77778 11.3333
140 1 Ar 7.55556 3.77778 15.1111
141 1 Ar 7.55556 3.77778 18.8889
142 1 Ar 7.55556 3.77778 22.6667
143 1 Ar 7.55556 3.77778 26.4444
144 1 Ar 7.55556 7.55556 0
145 1 Ar 7.55556 7.55556 3.77778
146 1 Ar 7.55556 7.55556 7.55556
147 1 Ar 7.55556 7.55556 11.3333
148 1 Ar 7.55556 7.55556 15.1111
149 1 Ar 7.55556 7.55556 18.8889
150 1 Ar 7.55556 7.55556 22.6667
151 1 Ar 7.55556 7.55556 26.4444
152 1 Ar 7.55556 11.3333 0
153 1 Ar 7.55556 11.3333 3.77778
154 1 Ar 7.55556 11.3333 7.55556
155 1 Ar 7.55556 11.3333 11.3333
156 1 Ar 7.55556 11.3333 15.1111
157 1 Ar 7.55556 11.3333 18.8889
158 1 Ar 7.55556 11.3333 22.6667
159 1 Ar 7.55556 11.3333 26.4444
160 1 Ar 7.55556 15.1111 0
161 1 Ar 7.55556 15.1111 3.77778
162 1 Ar 7.55556 15.1111 7.55556
163 1 Ar 7.55556 15.1111 11.3333
164 1 Ar 7.55556 15.1111 15.1111
165 1 Ar 7.55556 15.1111 18.8889
166 1 Ar 7.55556 15.1111 22.6667
167 1 Ar 7.55556 15.1111 26.4444
168 1 Ar 7.55556 18.8889 0
169 1 Ar 7.55556 18.8889 3.77778
170 1 Ar 7.55556 18.8889 7.55556
171 1 Ar 7.55556 18.8889 11.3333
172 1 Ar 7.55556 18.8889 15.1111
173 1 Ar 7.55556 18.8889 18.8889
174 1 Ar 7.55556 18.8889 22.6667
175 1 Ar 7.55556 18.8889 26.4444
176 1 Ar 7.55556 22.6667 0
177 1 Ar 7.55556 22.6667 3.77778
178 1 Ar 7.55556 22.6667 7.55556
179 1 Ar 7.55556 22.6667 11.3333
180 1 Ar 7.55556 22.6667 15.1111
181 1 Ar 7.55556 22.6667 18.8889
182 1 Ar 7.55556 22.6667 22.6667
183 1 Ar 7.55556 22.6667 26.4444
184 1 Ar 7.55556 26.4444 0
185 1 Ar 7.55556 26.4444 3.77778
186 1 Ar 7.55556 26.4444 7.55556
187 1 Ar 7.55556 26.4444 11.3333
188 1 Ar 7.55556 26.4444 15.1111
189 1 Ar 7.55556 26.4444 18.8889
190 1 Ar 7.55556 26.4444 22.6667
191 1 Ar 7.55556 26.4444 26.4444
192 1 Ar 11.3333 0 0
193 1 Ar 11.3333 0 3.77778
194 1 Ar 11.3333 0 7.55556
195 1 Ar 11.3333 0 11.3333
196 1 Ar 11.3333 0 15.1111
197 1 Ar 11.3333 0 18.8889
198 1 Ar 11.3333 0 22.6667
199 1 Ar 11.3333 0 26.4444
200 1 Ar 11.3333 3.77778 0
201 1 Ar 11.3333 3.77778 3.77778
202 1 Ar 11.3333 3.77778 7.55556
203 1 Ar 11.3333 3.77778 11.3333
204 1 Ar 11.3333 3.77778 15.1111
205 1 Ar 11.3333 3.77778 18.8889
206 1 Ar 11.3333 3.77778 22.6667
207 1 Ar 11.3333 3.77778 26.4444
208 1 Ar 11.3333 7.55556 0
209 1 Ar 11.3333 7.55556 3.77778
210 1 Ar 11.3333 7.55556 7.55556
211 1 Ar 11.3333 7.55556 11.3333
212 1 Ar 11.3333 7.55556 15.1111
213 1 Ar 11.3333 7.55556 18.8889
214 1 Ar 11.3333 7.55556 22.6667
215 1 Ar 11.3333 7.55556 26.4444
216 1 Ar 11.3333 11.3333 0
217 1 Ar 11.3333 11.3333 3.77778
218 1 Ar 11.3333 11.3333 7.55556
219 1 Ar 11.3333 11.3333 11.3333
220 1 Ar 11.3333 11.3333 15.1111
221 1 Ar 11.3333 11.3333 18.8889
222 1 Ar 11.3333 11.3333 22.6667
223 1 Ar 11.3333 11.3333 26.4444
224 1 Ar 11.3333 15.1111 0
225 1 Ar 11.3333 15.1111 3.77778
226 1 Ar 11.3333 15.1111 7.55556
227 1 Ar 11.3333 15.1111 11.3333
228 1 Ar 11.3333 15.1111 15.1111
229 1 Ar 11.3333 15.1111 18.8889
230 1 Ar 11.3333 15.1111 22.6667
231 1 Ar 11.3333 15.1111 26.4444
232 1 Ar 11.3333 18.8889 0
233 1 Ar 11.3333 18.8889 3.77778
234 1 Ar 11.3333 18.8889 7.55556
235 1 Ar 11.3333 18.8889 11.3333
236 1 Ar 11.3333 18.8889 15.1111
237 1 Ar 11.3333 18.8889 18.8889
238 1 Ar 11.3333 18.8889 22.6667
239 1 Ar 11.3333 18.8889 26.4444
240 1 Ar 11.3333 22.6667 0
241 1 Ar 11.3333 22.6667 3.77778
242 1 Ar 11.3333 22.6667 7.55556
243 1 Ar 11.3333 22.6667 11.3333
244 1 Ar 11.3333 22.6667 15.1111
245 1 Ar 11.3333 22.6667 18.8889
246 1 Ar 11.3333 22.6667 22.6667
247 1 Ar 11.3333 22.6667 26.4444
248 1 Ar 11.3333 26.4444 0
249 1 Ar 11.3333 26.4444 3.77778
250 1 Ar 11.3333 26.4444 7.55556
251 1 Ar 11.3333 26.4444 11.3333
252 1 Ar 11.3333 26.4444 15.1111
253 1 Ar 11.3333 26.4444 18.8889
254 1 Ar 11.3333 26.4444 22.6667
255 1 Ar 11.3333 26.4444 26.4444
256 1 Ar 15.1111 0 0
257 1 Ar 15.1111 0 3.77778
258 1 Ar 15.1111 0 7.55556
259 1 Ar 15.1111 0 11.3333
260 1 Ar 15.1111 0 15.1111
261 1 Ar 15.1111 0 18.8889
262 1 Ar 15.1111 0 22.6667
263 1 Ar 15.1111 0 26.4444
264 1 Ar 15.1111 3.77778 0
265 1 Ar 15.1111 3.77778 3.77778
266 1 Ar 15.1111 3.77778 7.55556
267 1 Ar 15.1111 3.77778 11.3333
268 1 Ar 15.1111 3.77778 15.1111
269 1 Ar 15.1111 3.77778 18.8889
270 1 Ar 15.1111 3.77778 22.6667
271 1 Ar 15.1111 3.77778 26.4444
272 1 Ar 15.1111 7.55556 0
273 1 Ar 15.1111 7.55556 3.77778
274 1 Ar 15.1111 7.55556 7.55556
275 1 Ar 15.1111 7.55556 11.3333
276 1 Ar 15.1111 7.55556 15.1111
277 1 Ar 15.1111 7.55556 18.8889
278 1 Ar 15.1111 7.55556 22.6667
279 1 Ar 15.1111 7.55556 26.4444
280 1 Ar 15.1111 11.3333 0
281 1 Ar 15.1111 11.3333 3.77778
282 1 Ar 15.1111 11.3333 7.55556
283 1 Ar 15.1111 11.3333 11.3333
284 1 Ar 15.1111 11.3333 15.1111
285 1 Ar 15.1111 11.3333 18.8889
286 1 Ar 15.1111 11.3333 22.6667
287 1 Ar 15.1111 11.3333 26.4444
288 1 Ar 15.1111 15.1111 0
289 1 Ar 15.1111 15.1111 3.77778
290 1 Ar 15.1111 15.1111 7.55556
291 1 Ar 15.1111 15.1111 11.3333
292 1 Ar 15.1111 15.1111 15.1111
293 1 Ar 15.1111 15.1111 18.8889
294 1 Ar 15.1111 15.1111 22.6667
295 1 Ar 15.1111 15.1111 26.4444
296 1 Ar 15.1111 18.8889 0
297 1 Ar 15.1111 18.8889 3.77778
298 1 Ar 15.1111 18.8889 7.55556
299 1 Ar 15.1111 18.8889 11.3333
300 1 Ar 15.1111 18.8889 15.1111
301 1 Ar 15.1111 18.8889 18.8889
302 1 Ar 15.1111 18.8889 22.6667
303 1 Ar 15.1111 18.8889 26.4444
304 1 Ar 15.1111 22.6667 0
305 1 Ar 15.1111 22.6667 3.77778
306 1 Ar 15.1111 22.6667 7.55556
307 1 Ar 15.1111 22.6667 11.3333
308 1 Ar 15.1111 22.6667 15.1111
309 1 Ar 15.1111 22.6667 18.8889
310 1 Ar 15.1111 22.6667 22.6667
311 1 Ar 15.1111 22.6667 26.4444
312 1 Ar 15.1111 26.4444 0
313 1 Ar 15.1111 26.4444 3.77778
314 1 Ar 15.1111 26.4444 7.55556
315 1 Ar 15.1111 26.4444 11.3333
316 1 Ar 15.1111 26.4444 15.1111
317 1 Ar 15.1111 26.4444 18.8889
318 1 Ar 15.1111 26.4444 22.6667
319 1 Ar 15.1111 26.4444 26.4444
320 1 Ar 18.8889 0 0
321 1 Ar 18.8889 0 3.77778
322 1 Ar 18.8889 0 7.55556
323 1 Ar 18.8889 0 11.3333
324 1 Ar 18.8889 0 15.1111
325 1 Ar 18.8889 0 18.8889
326 1 Ar 18.8889 0 22.6667
327 1 Ar 18.8889 0 26.4444
328 1 Ar 18.8889 3.77778 0
329 1 Ar 18.8889 3.77778 3.77778
330 1 Ar 18.8889 3.77778 7.55556
331 1 Ar 18.8889 3.77778 11.3333
332 1 Ar 18.8889 3.77778 15.1111
333 1 Ar 18.8889 3.77778 18.8889
334 1 Ar 18.8889 3.77778 22.6667
335 1 Ar 18.8889 3.77778 26.4444
336 1 Ar 18.8889 7.55556 0
337 1 Ar 18.8889 7.55556 3.77778
338 1 Ar 18.8889 7.55556 7.55556
339 1 Ar 18.8889 7.55556 11.3333
340 1 Ar 18.8889 7.55556 15.1111
341 1 Ar 18.8889 7.55556 18.8889
342 1 Ar 18.8889 7.55556 22.6667
343 1 Ar 18.8889 7.55556 26.4444
344 1 Ar 18.8889 11.3333 0
345 1 Ar 18.8889 11.3333 3.77778
346 1 Ar 18.8889 11.3333 7.55556
347 1 Ar 18.8889 11.3333 11.3333
348 1 Ar 18.8889 11.3333 15.1111
349 1 Ar 18.8889 11.3333 18.8889
350 1 Ar 18.8889 11.3333 22.6667
351 1 Ar 18.8889 11.3333 26.4444
352 1 Ar 18.8889 15.1111 0
353 1 Ar 18.8889 15.1111 3.77778
354 1 Ar 18.8889 15.1111 7.55556
355 1 Ar 18.8889 15.1111 11.3333
356 1 Ar 18.8889 15.1111 15.1111
357 1 Ar 18.8889 15.1111 18.8889
358 1 Ar 18.8889 15.1111 22.6667
359 1 Ar 18.8889 15.1111 26.4444
360 1 Ar 18.8889 18.8889 0
361 1 Ar 18.8889 18.8889 3.77778
362 1 Ar 18.8889 18.8889 7.55556
363 1 Ar 18.8889 18.8889 11.3333
364 1 Ar 18.8889 18.8889 15.1111
365 1 Ar 18.8889 18.8889 18.8889
366 1 Ar 18.8889 18.8889 22.6667
367 1 Ar 18.8889 18.8889 26.4444
368 1 Ar 18.8889 22.6667 0
369 1 Ar 18.8889 22.6667 3.77778
370 1 Ar 18.8889 22.6667 7.55556
371 1 Ar 18.8889 22.6667 11.3333
372 1 Ar 18.8889 22.6667 15.1111
373 1 Ar 18.8889 22.6667 18.8889
374 1 Ar 18.8889 22.6667 22.6667
375 1 Ar 18.8889 22.6667 26.4444
376 1 Ar 18.8889 26.4444 0
377 1 Ar 18.8889 26.4444 3.77778
378 1 Ar 18.8889 26.4444 7.55556
379 1 Ar 18.8889 26.4444 11.3333
380 1 Ar 18.8889 26.4444 15.1111
381 1 Ar 18.8889 26.4444 18.8889
382 1 Ar 18.8889 26.4444 22.6667
383 1 Ar 18.8889 26.4444 26.4444
384 1 Ar 22.6667 0 0
385 1 Ar 22.6667 0 3.77778
386 1 Ar 22.6667 0 7.55556
387 1 Ar 22.6667 0 11.3333
388 1 Ar 22.6667 0 15.1111
389 1 Ar 22.6667 0 18.8889
390 1 Ar 22.6667 0 22.6667
391 1 Ar 22.6667 0 26.4444
392 1 Ar 22.6667 3.77778 0
393 1 Ar 22.6667 3.77778 3.77778
394 1 Ar 22.6667 3.77778 7.55556
395 1 Ar 22.6667 3.77778 11.3333
396 1 Ar 22.6667 3.77778 15.1111
397 1 Ar 22.6667 3.77778 18.8889
398 1 Ar 22.6667 3.77778 22.6667
399 1 Ar 22.6667 3.77778 26.4444
400 1 Ar 22.6667 7.55556 0
401 1 Ar 22.6667 7.55556 3.77778
402 1 Ar 22.6667 7.55556 7.55556
403 1 Ar 22.6667 7.55556 11.3333
404 1 Ar 22.6667 7.55556 15.1111
405 1 Ar 22.6667 7.55556 18.8889
406 1 Ar 22.6667 7.55556 22.6667
407 1 Ar 22.6667 7.55556 26.4444
408 1 Ar 22.6667 11.3333 0
409 1 Ar 22.6667 11.3333 3.77778
410 1 Ar 22.6667 11.3333 7.55556
411 1 Ar 22.6667 11.3333 11.3333
412 1 Ar 22.6667 11.3333 15.1111
413 1 Ar 22.6667 11.3333 18.8889
414 1 Ar 22.6667 11.3333 22.6667
415 1 Ar 22.6667 11.3333 26.4444
416 1 Ar 22.6667 15.1111 0
417 1 Ar 22.6667 15.1111 3.77778
418 1 Ar 22.6667 15.1111 7.55556
419 1 Ar 22.6667 15.1111 11.3333
420 1 Ar 22.6667 15.1111 15.1111
421 1 Ar 22.6667 15.1111 18.8889
422 1 Ar 22.6667 15.1111 22.6667
423 1 Ar 22.6667 15.1111 26.4444
424 1 Ar 22.6667 18.8889 0
425 1 Ar 22.6667 18.8889 3.77778
426 1 Ar 22.6667 18.8889 7.55556
427 1 Ar 22.6667 18.8889 11.3333
428 1 Ar 22.6667 18.8889 15.1111
429 1 Ar 22.6667 18.8889 18.8889
430 1 Ar 22.6667 18.8889 22.6667
431 1 Ar 22.6667 18.8889 26.4444
432 1 Ar 22.6667 22.6667 0
433 1 Ar 22.6667 22.6667 3.77778
434 1 Ar 22.6667 22.6667 7.55556
435 1 Ar 22.6667 22.6667 11.3333
436 1 Ar 22.6667 22.6667 15.1111
437 1 Ar 22.6667 22.6667 18.8889
438 1 Ar 22.6667 22.6667 22.6667
439 1 Ar 22.6667 22.6667 26.4444
440 1 Ar 22.6667 26.4444 0
441 1 Ar 22.6667 26.4444 3.77778
442 1 Ar 22.6667 26.4444 7.55556
443 1 Ar 22.6667 26.4444 11.3333
444 1 Ar 22.6667 26.4444 15.1111
445 1 Ar 22.6667 26.4444 18.8889
446 1 Ar 22.6667 26.4444 22.6667
447 1 Ar 22.6667 26.4444 26.4444
448 1 Ar 26.4444 0 0
449 1 Ar 26.4444 0 3.77778
450 1 Ar 26.4444 0 7.55556
451 1 Ar 26.4444 0 11.3333
452 1 Ar 26.4444 0 15.1111
453 1 Ar 26.4444 0 18.8889
454 1 Ar 26.4444 0 22.6667
455 1 Ar 26.4444 0 26.4444
456 1 Ar 26.4444 3.77778 0
457 1 Ar 26.4444 3.77778 3.77778
458 1 Ar 26.4444 3.77778 7.55556
459 1 Ar 26.4444 3.77778 11.3333
460 1 Ar 26.4444 3.77778 15.1111
461 1 Ar 26.4444 3.77778 18.8889
462 1 Ar 26.4444 3.77778 22.6667
463 1 Ar 26.4444 3.77778 26.4444
464 1 Ar 26.4444 7.55556 0
465 1 Ar 26.4444 7.55556 3.77778
466 1 Ar 26.4444 7.55556 7.55556
467 1 Ar 26.4444 7.55556 11.3333
468 1 Ar 26.4444 7.55556 15.1111
469 1 Ar 26.4444 7.55556 18.8889
470 1 Ar 26.4444 7.55556 22.6667
471 1 Ar 26.4444 7.55556 26.4444
472 1 Ar 26.4444 11.3333 0
473 1 Ar 26.4444 11.3333 3.77778
474 1 Ar 26.4444 11.3333 7.55556
475 1 Ar 26.4444 11.3333 11.3333
476 1 Ar 26.4444 11.3333 15.1111
477 1 Ar 26.4444 11.3333 18.8889
478 1 Ar 26.4444 11.3333 22.6667
479 1 Ar 26.4444 11.3333 26.4444
480 1 Ar 26.4444 15.1111 0
481 1 Ar 26.4444 15.1111 3.77778
482 1 Ar 26.4444 15.1111 7.55556
483 1 Ar 26.4444 15.1111 11.3333
484 1 Ar 26.4444 15.1111 15.1111
485 1 Ar 26.4444 15.1111 18.8889
486 1 Ar 26.4444 15.1111 22.6667
487 1 Ar 26.4444 15.1111 26.4444
488 1 Ar 26.4444 18.8889 0
489 1 Ar 26.4444 18.8889 3.77778
490 1 Ar 26.4444 18.8889 7.55556
491 1 Ar 26.4444 18.8889 11.3333
492 1 Ar 26.4444 18.8889 15.1111
493 1 Ar 26.4444 18.8889 18.8889
494 1 Ar 26.4444 18.8889 22.6667
495 1 Ar 26.4444 18.8889 26.4444
496 1 Ar 26.4444 22.6667 0
497 1 Ar 26.4444 22.6667 3.77778
498 1 Ar 26.4444 22.6667 7.55556
499 1 Ar 26.4444 22.6667 11.3333
ITEM: TIMESTEP
19999
ITEM: NUMBER OF ATOMS
500
ITEM: BOX BOUNDS pp pp pp
0 34
0 34
0 34
ITEM: ATOMS id type element xu yu zu
0 1 Ar 33.3735 33.6489 33.7113
1 1 Ar 0.250106 33.464 4.17256
2 1 Ar 0.129246 32.6442 7.8394
3 1 Ar 30.3144 2.37815 10.6432
4 1 Ar 0.701684 33.717 12.6498
5 1 Ar 0.357624 32.304 16.9468
6 1 Ar 1.05357 1.30249 24.2443
7 1 Ar 1.26626 1.46782 30.9469
8 1 Ar 1.78254 1.97612 1.03397
9 1 Ar 33.0692 3.79885 4.53184
10 1 Ar 30.2979 3.02714 6.97538
11 1 Ar 33.9259 4.62177 10.8534
12 1 Ar 1.26189 1.91101 15.4072
13 1 Ar 33.366 3.59093 18.6862
14 1 Ar 32.8905 4.0788 22.6725
15 1 Ar 0.64273 4.43378 25.9837
16 1 Ar 32.6375 7.01716 1.10656
17 1 Ar 0.885214 7.7749 3.39678
18 1 Ar 33.3893 8.52978 6.80073
19 1 Ar 31.1489 7.51449 11.559
20 1 Ar 33.8662 6.71518 14.6692
21 1 Ar 0.504538 6.78576 19.6572
22 1 Ar 33.1042 7.36205 24.3447
23 1 Ar 31.5421 5.75026 28.077
24 1 Ar 0.52948 11.2515 33.6314
25 1 Ar 0.823107 11.4185 3.93312
26 1 Ar 0.536306 11.8905 7.70737
27 1 Ar 33.5246 10.4724 11.4948
28 1 Ar 0.465859 12.6408 15.9874
29 1 Ar 0.373655 10.3727 19.1129
30 1 Ar 0.221112 11.1808 22.5801
31 1 Ar 0.806093 9.46782 28.9837
32 1 Ar 33.877 14.8063 0.297674
33 1 Ar 33.0461 15.092 3.97517
34 1 Ar 1.03687 15.5552 8.44657
35 1 Ar 0.0873743 14.6248 12.0942
36 1 Ar 32.6157 15.9516 15.4317
37 1 Ar 33.6889 14.4435 19.3498
38 1 Ar 30.1515 16.7075 24.6109
39 1 Ar 33.6717 14.6383 24.8213
40 1 Ar 33.0422 18.218 1.61469
41 1 Ar 1.15719 18.4887 4.43133
42 1 Ar 0.234276 19.3031 7.6668
43 1 Ar 0.0693665 18.0466 11.1898
44 1 Ar 0.39527 20.3089 13.8274
45 1 Ar 0.601021 18.6141 17.8027
46 1 Ar 0.333466 18.0973 21.3131
47 1 Ar 33.4088 18.9378 26.8016
48 1 Ar 0.725479 21.1363 0.253417
49 1 Ar 0.196969 21.6011 3.99916
50 1 Ar 0.861294 23.5397 7.55947
51 1 Ar 0.627678 23.4154 11.887
52 1 Ar 0.526907 22.5401 16.9697
53 1 Ar 33.858 24.2139 20.2619
54 1 Ar 31.2309 21.9232 22.6779
55 1 Ar 1.25451 22.1209 25.7728
56 1 Ar 32.1452 25.8613 0.67034
57 1 Ar 33.6688 25.4864 3.96877
58 1 Ar 33.7437 28.1764 6.53576
59 1 Ar 31.3687 24.7482 13.7052
60 1 Ar 33.1308 29.6745 14.2951
61 1 Ar 32.7997 27.5443 19.067
62 1 Ar 1.16919 27.9428 23.5451
63 1 Ar 0.784276 29.414 28.4131
64 1 Ar 3.65742 33.0183 32.3877
65 1 Ar 4.65557 1.03931 2.3374
66 1 Ar 2.87925 31.5546 6.04266
67 1 Ar 4.15931 33.6705 9.62962
68 1 Ar 4.81626 0.415288 16.5973
69 1 Ar 2.48569 1.39279 19.7717
70 1 Ar 3.52899 33.0016 23.2805
71 1 Ar 3.57504 33.487 28.466
72 1 Ar 4.85778 2.95084 32.055
73 1 Ar 2.81293 4.2978 3.51603
74 1 Ar 4.14727 2.24735 6.74802
75 1 Ar 3.42671 3.70716 11.246
76 1 Ar 3.65724 3.90397 15.2695
77 1 Ar 3.20418 4.91766 18.7365
78 1 Ar 3.99375 3.47613 23.2141
79 1 Ar 3.43917 3.88704 28.5126
80 1 Ar 3.98376 5.33771 0.290485
81 1 Ar 5.01945 7.08178 3.87801
82 1 Ar 3.67283 7.73539 6.99928
83 1 Ar 2.87381 6.89924 12.4313
84 1 Ar 3.008 8.22244 16.1873
85 1 Ar 3.68369 8.33809 19.8921
86 1 Ar 3.74511 7.61575 23.4004
87 1 Ar 3.33097 7.67465 27.3534
88 1 Ar 3.4062 9.80167 0.672276
89 1 Ar 4.4723 11.2373 3.93982
90 1 Ar 4.65956 12.1792 7.76126
91 1 Ar 3.06058 10.5034 11.1124
92 1 Ar 4.72389 11.7203 15.0257
93 1 Ar 3.53802 12.6503 18.5465
94 1 Ar 4.02597 11.1205 22.6561
95 1 Ar 2.69769 12.0298 26.4751
96 1 Ar 3.58824 14.1017 0.0178871
97 1 Ar 3.31115 14.7461 4.07365
98 1 Ar 4.52592 15.602 7.81343
99 1 Ar 4.18001 14.685 11.5712
100 1 Ar 4.08346 14.7182 15.55
101 1 Ar 4.3536 16.0071 19.3115
102 1 Ar 2.72204 14.4117 22.8416
103 1 Ar 4.47456 14.5281 30.0865
104 1 Ar 6.19907 16.9685 32.5467
105 1 Ar 4.32575 18.5519 2.29516
106 1 Ar 3.55662 19.0804 7.62711
107 1 Ar 5.22251 19.4658 11.8475
108 1 Ar 3.5329 18.477 15.3075
109 1 Ar 4.32615 19.3277 18.4558
110 1 Ar 4.29709 18.1656 22.5806
111 1 Ar 3.32889 19.4695 26.1711
112 1 Ar 4.81718 22.0031 33.9005
113 1 Ar 3.58568 22.9116 3.44303
114 1 Ar 4.27198 22.8148 6.95794
115 1 Ar 4.01099 22.3193 10.7716
116 1 Ar 3.50296 22.4045 14.9705
117 1 Ar 3.67603 22.7173 19.3499
118 1 Ar 3.44981 22.1171 22.8792
119 1 Ar 4.27423 21.4414 28.9615
120 1 Ar 3.23856 26.626 33.2214
121 1 Ar 0.93712 29.8283 3.39396
122 1 Ar 2.73142 25.7676 5.66933
123 1 Ar 1.82535 26.3943 9.20615
124 1 Ar 2.18327 28.1889 15.5428
125 1 Ar 4.10273 26.1348 18.3591
126 1 Ar 4.58554 25.5829 23.8954
127 1 Ar 2.4161 26.5273 27.1591
128 1 Ar 7.64318 0.476049 0.695981
129 1 Ar 4.97782 29.8222 3.42145
130 1 Ar 8.91993 0.978357 7.98805
131 1 Ar 8.19837 33.381 11.4023
132 1 Ar 8.11644 1.31254 14.771
133 1 Ar 7.25389 31.8663 19.4877
134 1 Ar 7.39144 33.8296 22.325
135 1 Ar 7.36039 0.915891 25.9656
136 1 Ar 7.80155 4.75188 0.241003
137 1 Ar 7.23593 2.63004 4.69436
138 1 Ar 7.82511 4.60485 7.71499
139 1 Ar 7.16101 2.6907 11.8689
140 1 Ar 7.56295 4.43923 16.8396
141 1 Ar 6.48242 2.63578 19.7048
142 1 Ar 7.58167 3.74847 24.3457
143 1 Ar 8.04768 3.46549 28.4088
144 1 Ar 8.09052 8.19986 32.7204
145 1 Ar 8.63338 6.88999 3.72808
146 1 Ar 7.75774 7.95196 7.39989
147 1 Ar 7.98017 7.07519 11.1469
148 1 Ar 6.65517 7.90261 14.9778
149 1 Ar 7.1615 6.67126 20.2026
150 1 Ar 7.72446 7.96182 23.6315
151 1 Ar 7.9829 7.5535 28.6557
152 1 Ar 7.5132 10.8622 1.21691
153 1 Ar 8.4495 10.2911 4.84617
154 1 Ar 8.11599 11.0834 8.99723
155 1 Ar 7.13071 10.461 12.3857
156 1 Ar 8.61441 11.3005 15.7005
157 1 Ar 7.26722 10.7974 19.0899
158 1 Ar 7.47288 11.4711 22.3504
159 1 Ar 5.92712 11.6464 25.7138
160 1 Ar 7.46223 15.5751 1.13366
161 1 Ar 6.81564 16.0711 4.89626
162 1 Ar 7.9858 15.7713 8.11654
163 1 Ar 7.53193 14.2308 11.4088
164 1 Ar 7.36611 16.2212 14.4432
165 1 Ar 7.94898 15.1634 19.7953
166 1 Ar 6.47134 14.4631 23.2703
167 1 Ar 8.56668 13.8351 26.4249
168 1 Ar 8.26478 20.4908 33.8449
169 1 Ar 7.80699 18.8447 3.03549
170 1 Ar 7.18556 18.8969 7.27774
171 1 Ar 8.20453 17.6023 11.2231
172 1 Ar 7.65769 19.6936 15.2896
173 1 Ar 7.93231 18.3307 18.3494
174 1 Ar 8.08596 18.699 21.7038
175 1 Ar 8.94337 18.7731 25.4271
176 1 Ar 8.20093 23.3239 31.8791
177 1 Ar 6.82148 22.389 3.41399
178 1 Ar 7.95446 24.8055 7.26058
179 1 Ar 8.59524 21.3575 12.0967
180 1 Ar 7.04182 23.4133 14.9766
181 1 Ar 7.23931 21.9797 18.5512
182 1 Ar 7.1023 22.0155 22.2572
183 1 Ar 7.17193 21.661 26.4719
184 1 Ar 7.73101 27.126 33.3818
185 1 Ar 6.65648 26.0555 4.08526
186 1 Ar 7.08092 27.654 9.49093
187 1 Ar 7.63152 25.0008 12.0481
188 1 Ar 7.05756 27.4476 15.9433
189 1 Ar 6.96805 27.6112 20.4503
190 1 Ar 7.85814 25.2573 25.8649
191 1 Ar 5.55882 25.9937 29.9861
192 1 Ar 9.01078 32.1163 30.5132
193 1 Ar 11.0759 0.626844 3.07508
194 1 Ar 11.4625 32.8301 6.24875
195 1 Ar 11.538 33.8883 10.4336
196 1 Ar 12.8574 32.9422 14.7454
197 1 Ar 12.0519 33.9149 19.6038
198 1 Ar 10.9902 33.657 23.3132
199 1 Ar 10.8449 0.796307 28.6486
200 1 Ar 10.8413 3.20366 33.9874
201 1 Ar 10.2926 4.29953 3.56031
202 1 Ar 11.721 2.57643 7.22878
203 1 Ar 10.9376 2.92017 11.9115
204 1 Ar 10.9151 2.77745 15.6857
205 1 Ar 10.7635 3.43783 19.3994
206 1 Ar 11.9981 2.91482 23.1148
207 1 Ar 11.2008 4.44779 26.7973
208 1 Ar 11.2292 7.21043 31.4579
209 1 Ar 12.1073 8.28248 5.08336
210 1 Ar 12.04 6.8615 8.88874
211 1 Ar 11.4532 7.25668 12.251
212 1 Ar 11.1231 8.48179 15.7188
213 1 Ar 11.8347 7.77916 19.4225
214 1 Ar 11.0876 6.12197 22.4216
215 1 Ar 11.6106 8.22222 26.9915
216 1 Ar 11.2103 11.0245 0.0851947
217 1 Ar 11.2046 12.3523 3.81592
218 1 Ar 11.6209 10.3301 8.45984
219 1 Ar 10.7153 11.7448 11.908
220 1 Ar 12.1748 11.967 15.4002
221 1 Ar 10.5543 11.6554 18.5209
222 1 Ar 10.7684 12.4219 21.8849
223 1 Ar 11.1844 11.7889 25.2663
224 1 Ar 12.3053 15.0299 30.4715
225 1 Ar 10.637 15.789 4.00153
226 1 Ar 11.0001 14.7891 7.64394
227 1 Ar 11.6428 15.8728 11.663
228 1 Ar 10.8799 15.5921 15.2851
229 1 Ar 12.0725 15.076 18.921
230 1 Ar 10.5446 16.3261 21.7621
231 1 Ar 12.087 15.0626 26.7922
232 1 Ar 10.6845 18.1008 1.16
233 1 Ar 10.2406 19.3613 5.43881
234 1 Ar 12.3778 18.2097 8.085
235 1 Ar 11.9621 19.4908 11.8428
236 1 Ar 11.022 19.0934 15.5328
237 1 Ar 12.2552 18.6792 18.5321
238 1 Ar 11.6099 19.4718 22.0751
239 1 Ar 8.56512 18.7958 30.3393
240 1 Ar 11.9013 20.9595 31.1346
241 1 Ar 11.736 21.9707 3.06318
242 1 Ar 11.7606 22.6169 6.92445
243 1 Ar 11.6337 23.2981 11.6712
244 1 Ar 10.7469 22.5563 15.2127
245 1 Ar 11.4642 23.4824 18.1816
246 1 Ar 10.2267 23.744 23.1303
247 1 Ar 11.0042 22.1852 27.122
248 1 Ar 11.4356 26.8893 33.3459
249 1 Ar 9.8536 28.0027 2.81063
250 1 Ar 10.7994 26.5951 7.39719
251 1 Ar 11.355 26.7485 10.8689
252 1 Ar 11.7412 27.0118 14.9026
253 1 Ar 10.3183 28.0976 18.1164
254 1 Ar 11.6346 26.1659 21.3862
255 1 Ar 11.8474 27.1965 25.2838
256 1 Ar 14.6438 33.5843 0.293819
257 1 Ar 15.293 33.4657 6.23229
258 1 Ar 15.4672 1.15054 10.0987
259 1 Ar 15.6009 31.1966 15.2784
260 1 Ar 15.1506 0.0202196 17.5057
261 1 Ar 13.0528 30.0073 20.7771
262 1 Ar 15.0182 0.320136 22.434
263 1 Ar 16.5945 1.18277 25.4543
264 1 Ar 16.3913 2.3038 32.3109
265 1 Ar 13.9594 3.3566 1.77249
266 1 Ar 14.5017 5.06263 6.69246
267 1 Ar 14.3379 4.8798 12.2895
268 1 Ar 15.8364 3.18736 14.9705
269 1 Ar 14.231 3.03174 18.6361
270 1 Ar 15.438 4.32313 21.7093
271 1 Ar 15.4958 4.1118 28.1507
272 1 Ar 14.7045 7.41753 0.175737
273 1 Ar 16.3573 7.62904 4.70427
274 1 Ar 16.9581 7.4468 8.30264
275 1 Ar 15.0085 8.25249 11.3171
276 1 Ar 15.5951 6.90443 14.6085
277 1 Ar 15.1756 6.29993 19.1215
278 1 Ar 14.4905 7.86819 22.275
279 1 Ar 16.6743 8.03814 25.9991
280 1 Ar 14.8774 11.4304 0.011351
281 1 Ar 14.8286 10.9242 3.7391
282 1 Ar 16.4424 10.7103 7.21597
283 1 Ar 14.0684 11.5389 11.1209
284 1 Ar 15.4101 10.6314 15.4521
285 1 Ar 16.1904 10.8383 19.604
286 1 Ar 14.6148 11.6401 22.6997
287 1 Ar 15.1007 12.7915 26.1413
288 1 Ar 13.7536 15.1844 0.132943
289 1 Ar 15.5015 14.6815 4.02481
290 1 Ar 14.8849 13.9886 7.92721
291 1 Ar 15.0613 15.6522 11.6959
292 1 Ar 14.9492 14.3539 16.0478
293 1 Ar 15.8158 14.6329 19.4709
294 1 Ar 14.579 15.9505 22.929
295 1 Ar 15.2928 16.0447 28.233
296 1 Ar 15.7816 17.9743 0.479614
297 1 Ar 14.3816 18.15 3.47696
298 1 Ar 15.8285 18.5833 7.26357
299 1 Ar 16.1008 18.987 11.2922
300 1 Ar 15.1129 18.0659 15.0482
301 1 Ar 15.8706 18.1145 19.3707
302 1 Ar 15.1755 20.8351 23.7795
303 1 Ar 14.1446 18.9999 26.4791
304 1 Ar 14.538 21.7078 0.412232
305 1 Ar 15.0427 21.7051 5.35076
306 1 Ar 14.5232 21.4716 9.37887
307 1 Ar 14.8392 24.0545 11.7184
308 1 Ar 14.803 22.3315 15.3806
309 1 Ar 14.8329 22.0892 20.2289
310 1 Ar 14.6119 24.1505 23.4434
311 1 Ar 15.7416 22.5804 26.9313
312 1 Ar 15.2155 25.5197 32.4933
313 1 Ar 13.78 27.397 4.30495
314 1 Ar 14.5274 26.5191 8.45993
315 1 Ar 13.9868 31.4982 10.5936
316 1 Ar 16.591 26.5307 14.3969
317 1 Ar 15.06 26.0656 19.1628
318 1 Ar 15.5322 28.2009 22.5799
319 1 Ar 14.8501 27.2293 26.7561
320 1 Ar 18.9174 33.8518 33.4059
321 1 Ar 17.2269 0.804884 3.55247
322 1 Ar 17.5856 31.9032 8.82623
323 1 Ar 19.1472 32.0969 12.4453
324 1 Ar 18.6336 0.77274 14.9322
325 1 Ar 18.9836 33.3081 18.5447
326 1 Ar 18.4123 33.3959 22.6333
327 1 Ar 21.2551 33.6205 27.2266
328 1 Ar 18.1648 4.36726 1.40106
329 1 Ar 19.6922 4.14204 4.82295
330 1 Ar 18.3427 3.78616 7.70461
331 1 Ar 20.0636 2.57852 11.5165
332 1 Ar 19.907 4.03024 14.8303
333 1 Ar 18.5023 3.26175 19.6746
334 1 Ar 18.7306 3.59818 24.3686
335 1 Ar 19.4244 3.11781 27.768
336 1 Ar 17.8569 6.24627 32.4144
337 1 Ar 19.137 7.82413 1.171
338 1 Ar 19.8655 9.06414 6.29753
339 1 Ar 19.3505 7.04361 11.2923
340 1 Ar 19.3922 8.05911 14.5772
341 1 Ar 18.9614 6.64615 17.8263
342 1 Ar 18.5672 7.04715 22.635
343 1 Ar 19.6184 6.59481 29.0945
344 1 Ar 19.4196 11.7845 0.604465
345 1 Ar 18.4236 10.8604 3.63776
346 1 Ar 19.433 12.3229 7.28467
347 1 Ar 18.8122 10.4175 10.265
348 1 Ar 18.53 11.7628 14.9005
349 1 Ar 20.0317 10.3642 18.4949
350 1 Ar 18.0827 11.2521 22.8129
351 1 Ar 18.8198 11.4853 27.4804
352 1 Ar 19.4025 15.9173 1.17831
353 1 Ar 19.1247 14.6678 4.67522
354 1 Ar 18.7833 15.2789 8.95553
355 1 Ar 18.3192 14.526 12.3167
356 1 Ar 19.1229 14.8299 16.1762
357 1 Ar 18.9964 13.5222 19.4198
358 1 Ar 18.2826 15.1948 22.7512
359 1 Ar 18.3875 14.9675 26.7502
360 1 Ar 18.3783 20.5536 33.2314
361 1 Ar 18.7944 18.4707 3.42297
362 1 Ar 19.062 19.1494 7.48407
363 1 Ar 19.4784 17.6629 11.7469
364 1 Ar 18.6621 18.683 16.1086
365 1 Ar 19.2608 17.6291 19.9379
366 1 Ar 18.8277 18.5203 23.86
367 1 Ar 19.134 18.3367 28.0453
368 1 Ar 18.9059 23.7979 32.9282
369 1 Ar 16.596 23.3199 2.66815
370 1 Ar 19.2732 22.9788 6.42388
371 1 Ar 17.7868 21.7134 10.9564
372 1 Ar 19.5279 22.1388 14.9103
373 1 Ar 19.0147 20.9745 18.5684
374 1 Ar 18.2559 23.3167 22.0995
375 1 Ar 19.2151 22.3625 26.1098
376 1 Ar 17.085 27.9073 0.782147
377 1 Ar 19.1918 26.5214 4.97477
378 1 Ar 18.0283 25.9073 8.03276
379 1 Ar 18.8277 25.5964 11.1994
380 1 Ar 20.6466 26.5034 14.272
381 1 Ar 19.5864 25.6064 18.8011
382 1 Ar 17.9154 30.3918 20.4635
383 1 Ar 18.2887 27.2067 24.9399
384 1 Ar 21.9364 33.1461 32.1317
385 1 Ar 21.5746 0.820333 1.65543
386 1 Ar 21.6516 33.9224 8.09931
387 1 Ar 21.5427 28.3658 10.3126
388 1 Ar 22.2737 0.930301 13.8024
389 1 Ar 22.5983 0.191978 18.1645
390 1 Ar 22.2449 0.886044 22.5735
391 1 Ar 25.5459 0.254218 26.5551
392 1 Ar 23.4428 2.87613 32.2936
393 1 Ar 23.4385 3.43337 4.26123
394 1 Ar 23.9957 2.64511 7.44608
395 1 Ar 23.5738 3.53983 10.8302
396 1 Ar 23.9287 4.00876 15.5011
397 1 Ar 22.9452 3.57626 18.7913
398 1 Ar 23.3408 4.88972 22.1522
399 1 Ar 22.6873 4.01018 26.5686
400 1 Ar 22.01 5.63738 0.978499
401 1 Ar 22.3935 8.41535 3.32031
402 1 Ar 23.3243 6.2732 6.77827
403 1 Ar 22.9208 7.96623 10.8477
404 1 Ar 23.1222 7.50322 14.9916
405 1 Ar 22.4302 7.34793 18.9781
406 1 Ar 22.5976 7.97332 23.1541
407 1 Ar 22.4949 7.88413 27.3754
408 1 Ar 21.3835 9.53696 33.0703
409 1 Ar 22.5523 11.8734 4.08777
410 1 Ar 22.9727 10.686 8.2787
411 1 Ar 23.5886 11.3452 12.1632
412 1 Ar 22.5931 11.0313 15.9067
413 1 Ar 24.5062 9.89699 19.7833
414 1 Ar 22.5017 12.1451 23.4331
415 1 Ar 24.2611 11.4538 26.3972
416 1 Ar 23.6956 14.8837 33.6247
417 1 Ar 22.6442 15.7639 3.27239
418 1 Ar 22.3073 14.25 7.60217
419 1 Ar 22.8594 16.1027 11.3689
420 1 Ar 22.8052 15.0381 14.7939
421 1 Ar 22.7313 15.321 18.2576
422 1 Ar 24.5924 15.4604 21.9092
423 1 Ar 22.7525 14.7774 27.2132
424 1 Ar 22.1596 18.2794 32.6676
425 1 Ar 21.908 18.9941 2.65847
426 1 Ar 22.5382 17.9073 6.7273
427 1 Ar 22.7757 19.2641 10.1921
428 1 Ar 22.5714 18.4439 14.2337
429 1 Ar 21.9775 18.7898 18.6288
430 1 Ar 22.954 18.9512 22.0373
431 1 Ar 21.6023 19.1916 26.1184
432 1 Ar 23.7224 22.4686 32.1246
433 1 Ar 22.6858 22.7572 4.35354
434 1 Ar 22.4751 22.7579 8.342
435 1 Ar 21.0072 23.1318 11.8533
436 1 Ar 22.8638 22.287 14.7141
437 1 Ar 23.153 22.9336 18.5863
438 1 Ar 21.7862 22.8106 22.94
439 1 Ar 21.2476 24.5857 27.6621
440 1 Ar 22.0812 26.4684 32.3191
441 1 Ar 22.5253 25.6794 1.96511
442 1 Ar 24.3684 26.1979 5.64183
443 1 Ar 26.4652 29.0134 11.3986
444 1 Ar 25.1862 27.7214 15.6078