ITEM: TIMESTEP
-1
ITEM: NUMBER OF ATOMS
500
ITEM: BOX BOUNDS pp pp pp
0 34
0 34
0 34
ITEM: ATOMS id type element xu yu zu
0 1 Ar 0 0 0
1 1 Ar 0 0 3.77778
2 1 Ar 0 0 7.55556
3 1 Ar 0 0 11.3333
4 1 Ar 0 0 15.1111
5 1 Ar 0 0 18.8889
6 1 Ar 0 0 22.6667
7 1 Ar 0 0 26.4444
8 1 Ar 0 3.77778 0
9 1 Ar 0 3.77778 3.77778
10 1 Ar 0 3.77778 7.55556
11 1 Ar 0 3.77778 11.3333
12 1 Ar 0 3.77778 15.1111
13 1 Ar 0 3.77778 18.8889
14 1 Ar 0 3.77778 22.6667
15 1 Ar 0 3.77778 26.4444
16 1 Ar 0 7.55556 0
17 1 Ar 0 7.55556 3.77778
18 1 Ar 0 7.55556 7.55556
19 1 Ar 0 7.55556 11.3333
20 1 Ar 0 7.55556 15.1111
21 1 Ar 0 7.55556 18.8889
22 1 Ar 0 7.55556 22.6667
23 1 Ar 0 7.55556 26.4444
24 1 Ar 0 11.3333 0
25 1 Ar 0 11.3333 3.77778
26 1 Ar 0 11.3333 7.55556
27 1 Ar 0 11.3333 11.3333
28 1 Ar 0 11.3333 15.1111
29 1 Ar 0 11.3333 18.8889
30 1 Ar 0 11.3333 22.6667
31 1 Ar 0 11.3333 26.4444
32 1 Ar 0 15.1111 0
33 1 Ar 0 15.1111 3.77778
34 1 Ar 0 15.1111 7.55556
35 1 Ar 0 15.1111 11.3333
36 1 Ar 0 15.1111 15.1111
37 1 Ar 0 15.1111 18.8889
38 1 Ar 0 15.1111 22.6667
39 1 Ar 0 15.1111 26.4444
40 1 Ar 0 18.8889 0
41 1 Ar 0 18.8889 3.77778
42 1 Ar 0 18.8889 7.55556
43 1 Ar 0 18.8889 11.3333
44 1 Ar 0 18.8889 15.1111
45 1 Ar 0 18.8889 18.8889
46 1 Ar 0 18.8889 22.6667
47 1 Ar 0 18.8889 26.4444
48 1 Ar 0 22.6667 0
49 1 Ar 0 22.6667 3.77778
50 1 Ar 0 22.6667 7.55556
51 1 Ar 0 22.6667 11.3333
52 1 Ar 0 22.6667 15.1111
53 1 Ar 0 22.6667 18.8889
54 1 Ar 0 22.6667 22.6667
55 1 Ar 0 22.6667 26.4444
56 1 Ar 0 26.4444 0
57 1 Ar 0 26.4444 3.77778
58 1 Ar 0 26.4444 7.55556
59 1 Ar 0 26.4444 11.3333
60 1 Ar 0 26.4444 15.1111
61 1 Ar 0 26.4444 18.8889
62 1 Ar 0 26.4444 22.6667
63 1 Ar 0 26.4444 26.4444
64 1 Ar 3.77778 0 0
65 1 Ar 3.77778 0 3.77778
66 1 Ar 3.77778 0 7.55556
67 1 Ar 3.77778 0 11.3333
68 1 Ar 3.77778 0 15.1111
69 1 Ar 3.77778 0 18.8889
70 1 Ar 3.77778 0 22.6667
71 1 Ar 3.77778 0 26.4444
72 1 Ar 3.77778 3.77778 0
73 1 Ar 3.77778 3.77778 3.77778
74 1 Ar 3.77778 3.77778 7.55556
75 1 Ar 3.77778 3.77778 11.3333
76 1 Ar 3.77778 3.77778 15.1111
77 1 Ar 3.77778 3.77778 18.8889
78 1 Ar 3.77778 3.77778 22.6667
79 1 Ar 3.77778 3.77778 26.4444
80 1 Ar 3.77778 7.55556 0
81 1 Ar 3.77778 7.55556 3.77778
82 1 Ar 3.77778 7.55556 7.55556
83 1 Ar 3.77778 7.55556 11.3333
84 1 Ar 3.77778 7.55556 15.1111
85 1 Ar 3.77778 7.55556 18.8889
86 1 Ar 3.77778 7.55556 22.6667
87 1 Ar 3.77778 7.55556 26.4444
88 1 Ar 3.77778 11.3333 0
89 1 Ar 3.77778 11.3333 3.77778
90 1 Ar 3.77778 11.3333 7.55556
91 1 Ar 3.77778 11.3333 11.3333
92 1 Ar 3.77778 11.3333 15.1111
93 1 Ar 3.77778 11.3333 18.8889
94 1 Ar 3.77778 11.3333 22.6667
95 1 Ar 3.77778 11.3333 26.4444
96 1 Ar 3.77778 15.1111 0
97 1 Ar 3.77778 15.1111 3.77778
98 1 Ar 3.77778 15.1111 7.55556
99 1 Ar 3.77778 15.1111 11.3333
100 1 Ar 3.77778 15.1111 15.1111
101 1 Ar 3.77778 15.1111 18.8889
102 1 Ar 3.77778 15.1111 22.6667
103 1 Ar 3.77778 15.1111 26.4444
104 1 Ar 3.77778 18.8889 0
105 1 Ar 3.77778 18.8889 3.77778
106 1 Ar 3.77778 18.8889 7.55556
107 1 Ar 3.77778 18.8889 11.3333
108 1 Ar 3.77778 18.8889 15.1111
109 1 Ar 3.77778 18.8889 18.8889
110 1 Ar 3.77778 18.8889 22.6667
111 1 Ar 3.77778 18.8889 26.4444
112 1 Ar 3.77778 22.6667 0
113 1 Ar 3.77778 22.6667 3.77778
114 1 Ar 3.77778 22.6667 7.55556
115 1 Ar 3.77778 22.6667 11.3333
116 1 Ar 3.77778 22.6667 15.1111
117 1 Ar 3.77778 22.6667 18.8889
118 1 Ar 3.77778 22.6667 22.6667
119 1 Ar 3.77778 22.6667 26.4444
120 1 Ar 3.77778 26.4444 0
121 1 Ar 3.77778 26.4444 3.77778
122 1 Ar 3.77778 26.4444 7.55556
123 1 Ar 3.77778 26.4444 11.3333
124 1 Ar 3.77778 26.4444 15.1111
125 1 Ar 3.77778 26.4444 18.8889
126 1 Ar 3.77778 26.4444 22.6667
127 1 Ar 3.77778 26.4444 26.4444
128 1 Ar 7.55556 0 0
129 1 Ar 7.55556 0 3.77778
130 1 Ar 7.55556 0 7.55556
131 1 Ar 7.55556 0 11.3333
132 1 Ar 7.55556 0 15.1111
133 1 Ar 7.55556 0 18.8889
134 1 Ar 7.55556 0 22.6667
135 1 Ar 7.55556 0 26.4444
136 1 Ar 7.55556 3.77778 0
137 1 Ar 7.55556 3.77778 3.77778
138 1 Ar 7.55556 3.77778 7.55556
139 1 Ar 7.55556 3.77778 11.3333
140 1 Ar 7.55556 3.77778 15.1111
141 1 Ar 7.55556 3.77778 18.8889
142 1 Ar 7.55556 3.77778 22.6667
143 1 Ar 7.55556 3.77778 26.4444
144 1 Ar 7.55556 7.55556 0
145 1 Ar 7.55556 7.55556 3.77778
146 1 Ar 7.55556 7.55556 7.55556
147 1 Ar 7.55556 7.55556 11.3333
148 1 Ar 7.55556 7.55556 15.1111
149 1 Ar 7.55556 7.55556 18.8889
150 1 Ar 7.55556 7.55556 22.6667
151 1 Ar 7.55556 7.55556 26.4444
152 1 Ar 7.55556 11.3333 0
153 1 Ar 7.55556 11.3333 3.77778
154 1 Ar 7.55556 11.3333 7.55556
155 1 Ar 7.55556 11.3333 11.3333
156 1 Ar 7.55556 11.3333 15.1111
157 1 Ar 7.55556 11.3333 18.8889
158 1 Ar 7.55556 11.3333 22.6667
159 1 Ar 7.55556 11.3333 26.4444
160 1 Ar 7.55556 15.1111 0
161 1 Ar 7.55556 15.1111 3.77778
162 1 Ar 7.55556 15.1111 7.55556
163 1 Ar 7.55556 15.1111 11.3333
164 1 Ar 7.55556 15.1111 15.1111
165 1 Ar 7.55556 15.1111 18.8889
166 1 Ar 7.55556 15.1111 22.6667
167 1 Ar 7.55556 15.1111 26.4444
168 1 Ar 7.55556 18.8889 0
169 1 Ar 7.55556 18.8889 3.77778
170 1 Ar 7.55556 18.8889 7.55556
171 1 Ar 7.55556 18.8889 11.3333
172 1 Ar 7.55556 18.8889 15.1111
173 1 Ar 7.55556 18.8889 18.8889
174 1 Ar 7.55556 18.8889 22.6667
175 1 Ar 7.55556 18.8889 26.4444
176 1 Ar 7.55556 22.6667 0
177 1 Ar 7.55556 22.6667 3.77778
178 1 Ar 7.55556 22.6667 7.55556
179 1 Ar 7.55556 22.6667 11.3333
180 1 Ar 7.55556 22.6667 15.1111
181 1 Ar 7.55556 22.6667 18.8889
182 1 Ar 7.55556 22.6667 22.6667
183 1 Ar 7.55556 22.6667 26.4444
184 1 Ar 7.55556 26.4444 0
185 1 Ar 7.55556 26.4444 3.77778
186 1 Ar 7.55556 26.4444 7.55556
187 1 Ar 7.55556 26.4444 11.3333
188 1 Ar 7.55556 26.4444 15.1111
189 1 Ar 7.55556 26.4444 18.8889
190 1 Ar 7.55556 26.4444 22.6667
191 1 Ar 7.55556 26.4444 26.4444
192 1 Ar 11.3333 0 0
193 1 Ar 11.3333 0 3.77778
194 1 Ar 11.3333 0 7.55556
195 1 Ar 11.3333 0 11.3333
196 1 Ar 11.3333 0 15.1111
197 1 Ar 11.3333 0 18.8889
198 1 Ar 11.3333 0 22.6667
199 1 Ar 11.3333 0 26.4444
200 1 Ar 11.3333 3.77778 0
201 1 Ar 11.3333 3.77778 3.77778
202 1 Ar 11.3333 3.77778 7.55556
203 1 Ar 11.3333 3.77778 11.3333
204 1 Ar 11.3333 3.77778 15.1111
205 1 Ar 11.3333 3.77778 18.8889
206 1 Ar 11.3333 3.77778 22.6667
207 1 Ar 11.3333 3.77778 26.4444
208 1 Ar 11.3333 7.55556 0
209 1 Ar 11.3333 7.55556 3.77778
210 1 Ar 11.3333 7.55556 7.55556
211 1 Ar 11.3333 7.55556 11.3333
212 1 Ar 11.3333 7.55556 15.1111
213 1 Ar 11.3333 7.55556 18.8889
214 1 Ar 11.3333 7.55556 22.6667
215 1 Ar 11.3333 7.55556 26.4444
216 1 Ar 11.3333 11.3333 0
217 1 Ar 11.3333 11.3333 3.77778
218 1 Ar 11.3333 11.3333 7.55556
219 1 Ar 11.3333 11.3333 11.3333
220 1 Ar 11.3333 11.3333 15.1111
221 1 Ar 11.3333 11.3333 18.8889
222 1 Ar 11.3333 11.3333 22.6667
223 1 Ar 11.3333 11.3333 26.4444
224 1 Ar 11.3333 15.1111 0
225 1 Ar 11.3333 15.1111 3.77778
226 1 Ar 11.3333 15.1111 7.55556
227 1 Ar 11.3333 15.1111 11.3333
228 1 Ar 11.3333 15.1111 15.1111
229 1 Ar 11.3333 15.1111 18.8889
230 1 Ar 11.3333 15.1111 22.6667
231 1 Ar 11.3333 15.1111 26.4444
232 1 Ar 11.3333 18.8889 0
233 1 Ar 11.3333 18.8889 3.77778
234 1 Ar 11.3333 18.8889 7.55556
235 1 Ar 11.3333 18.8889 11.3333
236 1 Ar 11.3333 18.8889 15.1111
237 1 Ar 11.3333 18.8889 18.8889
238 1 Ar 11.3333 18.8889 22.6667
239 1 Ar 11.3333 18.8889 26.4444
240 1 Ar 11.3333 22.6667 0
241 1 Ar 11.3333 22.6667 3.77778
242 1 Ar 11.3333 22.6667 7.55556
243 1 Ar 11.3333 22.6667 11.3333
244 1 Ar 11.3333 22.6667 15.1111
245 1 Ar 11.3333 22.6667 18.8889
246 1 Ar 11.3333 22.6667 22.6667
247 1 Ar 11.3333 22.6667 26.4444
248 1 Ar 11.3333 26.4444 0
249 1 Ar 11.3333 26.4444 3.77778
250 1 Ar 11.3333 26.4444 7.55556
251 1 Ar 11.3333 26.4444 11.3333
252 1 Ar 11.3333 26.4444 15.1111
253 1 Ar 11.3333 26.4444 18.8889
254 1 Ar 11.3333 26.4444 22.6667
255 1 Ar 11.3333 26.4444 26.4444
256 1 Ar 15.1111 0 0
257 1 Ar 15.1111 0 3.77778
258 1 Ar 15.1111 0 7.55556
259 1 Ar 15.1111 0 11.3333
260 1 Ar 15.1111 0 15.1111
261 1 Ar 15.1111 0 18.8889
262 1 Ar 15.1111 0 22.6667
263 1 Ar 15.1111 0 26.4444
264 1 Ar 15.1111 3.77778 0
265 1 Ar 15.1111 3.77778 3.77778
266 1 Ar 15.1111 3.77778 7.55556
267 1 Ar 15.1111 3.77778 11.3333
268 1 Ar 15.1111 3.77778 15.1111
269 1 Ar 15.1111 3.77778 18.8889
270 1 Ar 15.1111 3.77778 22.6667
271 1 Ar 15.1111 3.77778 26.4444
272 1 Ar 15.1111 7.55556 0
273 1 Ar 15.1111 7.55556 3.77778
274 1 Ar 15.1111 7.55556 7.55556
275 1 Ar 15.1111 7.55556 11.3333
276 1 Ar 15.1111 7.55556 15.1111
277 1 Ar 15.1111 7.55556 18.8889
278 1 Ar 15.1111 7.55556 22.6667
279 1 Ar 15.1111 7.55556 26.4444
280 1 Ar 15.1111 11.3333 0
281 1 Ar 15.1111 11.3333 3.77778
282 1 Ar 15.1111 11.3333 7.55556
283 1 Ar 15.1111 11.3333 11.3333
284 1 Ar 15.1111 11.3333 15.1111
285 1 Ar 15.1111 11.3333 18.8889
286 1 Ar 15.1111 11.3333 22.6667
287 1 Ar 15.1111 11.3333 26.4444
288 1 Ar 15.1111 15.1111 0
289 1 Ar 15.1111 15.1111 3.77778
290 1 Ar 15.1111 15.1111 7.55556
291 1 Ar 15.1111 15.1111 11.3333
292 1 Ar 15.1111 15.1111 15.1111
293 1 Ar 15.1111 15.1111 18.8889
294 1 Ar 15.1111 15.1111 22.6667
295 1 Ar 15.1111 15.1111 26.4444
296 1 Ar 15.1111 18.8889 0
297 1 Ar 15.1111 18.8889 3.77778
298 1 Ar 15.1111 18.8889 7.55556
299 1 Ar 15.1111 18.8889 11.3333
300 1 Ar 15.1111 18.8889 15.1111
301 1 Ar 15.1111 18.8889 18.8889
302 1 Ar 15.1111 18.8889 22.6667
303 1 Ar 15.1111 18.8889 26.4444
304 1 Ar 15.1111 22.6667 0
305 1 Ar 15.1111 22.6667 3.77778
306 1 Ar 15.1111 22.6667 7.55556
307 1 Ar 15.1111 22.6667 11.3333
308 1 Ar 15.1111 22.6667 15.1111
309 1 Ar 15.1111 22.6667 18.8889
310 1 Ar 15.1111 22.6667 22.6667
311 1 Ar 15.1111 22.6667 26.4444
312 1 Ar 15.1111 26.4444 0
313 1 Ar 15.1111 26.4444 3.77778
314 1 Ar 15.1111 26.4444 7.55556
315 1 Ar 15.1111 26.4444 11.3333
316 1 Ar 15.1111 26.4444 15.1111
317 1 Ar 15.1111 26.4444 18.8889
318 1 Ar 15.1111 26.4444 22.6667
319 1 Ar 15.1111 26.4444 26.4444
320 1 Ar 18.8889 0 0
321 1 Ar 18.8889 0 3.77778
322 1 Ar 18.8889 0 7.55556
323 1 Ar 18.8889 0 11.3333
324 1 Ar 18.8889 0 15.1111
325 1 Ar 18.8889 0 18.8889
326 1 Ar 18.8889 0 22.6667
327 1 Ar 18.8889 0 26.4444
328 1 Ar 18.8889 3.77778 0
329 1 Ar 18.8889 3.77778 3.77778
330 1 Ar 18.8889 3.77778 7.55556
331 1 Ar 18.8889 3.77778 11.3333
332 1 Ar 18.8889 3.77778 15.1111
333 1 Ar 18.8889 3.77778 18.8889
334 1 Ar 18.8889 3.77778 22.6667
335 1 Ar 18.8889 3.77778 26.4444
336 1 Ar 18.8889 7.55556 0
337 1 Ar 18.8889 7.55556 3.77778
338 1 Ar 18.8889 7.55556 7.55556
339 1 Ar 18.8889 7.55556 11.3333
340 1 Ar 18.8889 7.55556 15.1111
341 1 Ar 18.8889 7.55556 18.8889
342 1 Ar 18.8889 7.55556 22.6667
343 1 Ar 18.8889 7.55556 26.4444
344 1 Ar 18.8889 11.3333 0
345 1 Ar 18.8889 11.3333 3.77778
346 1 Ar 18.8889 11.3333 7.55556
347 1 Ar 18.8889 11.3333 11.3333
348 1 Ar 18.8889 11.3333 15.1111
349 1 Ar 18.8889 11.3333 18.8889
350 1 Ar 18.8889 11.3333 22.6667
351 1 Ar 18.8889 11.3333 26.4444
352 1 Ar 18.8889 15.1111 0
353 1 Ar 18.8889 15.1111 3.77778
354 1 Ar 18.8889 15.1111 7.55556
355 1 Ar 18.8889 15.1111 11.3333
356 1 Ar 18.8889 15.1111 15.1111
357 1 Ar 18.8889 15.1111 18.8889
358 1 Ar 18.8889 15.1111 22.6667
359 1 Ar 18.8889 15.1111 26.4444
360 1 Ar 18.8889 18.8889 0
361 1 Ar 18.8889 18.8889 3.77778
362 1 Ar 18.8889 18.8889 7.55556
363 1 Ar 18.8889 18.8889 11.3333
364 1 Ar 18.8889 18.8889 15.1111
365 1 Ar 18.8889 18.8889 18.8889
366 1 Ar 18.8889 18.8889 22.6667
367 1 Ar 18.8889 18.8889 26.4444
368 1 Ar 18.8889 22.6667 0
369 1 Ar 18.8889 22.6667 3.77778
370 1 Ar 18.8889 22.6667 7.55556
371 1 Ar 18.8889 22.6667 11.3333
372 1 Ar 18.8889 22.6667 15.1111
373 1 Ar 18.8889 22.6667 18.8889
374 1 Ar 18.8889 22.6667 22.6667
375 1 Ar 18.8889 22.6667 26.4444
376 1 Ar 18.8889 26.4444 0
377 1 Ar 18.8889 26.4444 3.77778
378 1 Ar 18.8889 26.4444 7.55556
379 1 Ar 18.8889 26.4444 11.3333
380 1 Ar 18.8889 26.4444 15.1111
381 1 Ar 18.8889 26.4444 18.8889
382 1 Ar 18.8889 26.4444 22.6667
383 1 Ar 18.8889 26.4444 26.4444
384 1 Ar 22.6667 0 0
385 1 Ar 22.6667 0 3.77778
386 1 Ar 22.6667 0 7.55556
387 1 Ar 22.6667 0 11.3333
388 1 Ar 22.6667 0 15.1111
389 1 Ar 22.6667 0 18.8889
390 1 Ar 22.6667 0 22.6667
391 1 Ar 22.6667 0 26.4444
392 1 Ar 22.6667 3.77778 0
393 1 Ar 22.6667 3.77778 3.77778
394 1 Ar 22.6667 3.77778 7.55556
395 1 Ar 22.6667 3.77778 11.3333
396 1 Ar 22.6667 3.77778 15.1111
397 1 Ar 22.6667 3.77778 18.8889
398 1 Ar 22.6667 3.77778 22.6667
399 1 Ar 22.6667 3.77778 26.4444
400 1 Ar 22.6667 7.55556 0
401 1 Ar 22.6667 7.55556 3.77778
402 1 Ar 22.6667 7.55556 7.55556
403 1 Ar 22.6667 7.55556 11.3333
404 1 Ar 22.6667 7.55556 15.1111
405 1 Ar 22.6667 7.55556 18.8889
406 1 Ar 22.6667 7.55556 22.6667
407 1 Ar 22.6667 7.55556 26.4444
408 1 Ar 22.6667 11.3333 0
409 1 Ar 22.6667 11.3333 3.77778
410 1 Ar 22.6667 11.3333 7.55556
411 1 Ar 22.6667 11.3333 11.3333
412 1 Ar 22.6667 11.3333 15.1111
413 1 Ar 22.6667 11.3333 18.8889
414 1 Ar 22.6667 11.3333 22.6667
415 1 Ar 22.6667 11.3333 26.4444
416 1 Ar 22.6667 15.1111 0
417 1 Ar 22.6667 15.1111 3.77778
418 1 Ar 22.6667 15.1111 7.55556
419 1 Ar 22.6667 15.1111 11.3333
420 1 Ar 22.6667 15.1111 15.1111
421 1 Ar 22.6667 15.1111 18.8889
422 1 Ar 22.6667 15.1111 22.6667
423 1 Ar 22.6667 15.1111 26.4444
424 1 Ar 22.6667 18.8889 0
425 1 Ar 22.6667 18.8889 3.77778
426 1 Ar 22.6667 18.8889 7.55556
427 1 Ar 22.6667 18.8889 11.3333
428 1 Ar 22.6667 18.8889 15.1111
429 1 Ar 22.6667 18.8889 18.8889
430 1 Ar 22.6667 18.8889 22.6667
431 1 Ar 22.6667 18.8889 26.4444
432 1 Ar 22.6667 22.6667 0
433 1 Ar 22.6667 22.6667 3.77778
434 1 Ar 22.6667 22.6667 7.55556
435 1 Ar 22.6667 22.6667 11.3333
436 1 Ar 22.6667 22.6667 15.1111
437 1 Ar 22.6667 22.6667 18.8889
438 1 Ar 22.6667 22.6667 22.6667
439 1 Ar 22.6667 22.6667 26.4444
440 1 Ar 22.6667 26.4444 0
441 1 Ar 22.6667 26.4444 3.77778
442 1 Ar 22.6667 26.4444 7.55556
443 1 Ar 22.6667 26.4444 11.3333
444 1 Ar 22.6667 26.4444 15.1111
445 1 Ar 22.6667 26.4444 18.8889
446 1 Ar 22.6667 26.4444 22.6667
447 1 Ar 22.6667 26.4444 26.4444
448 1 Ar 26.4444 0 0
449 1 Ar 26.4444 0 3.77778
450 1 Ar 26.4444 0 7.55556
451 1 Ar 26.4444 0 11.3333
452 1 Ar 26.4444 0 15.1111
453 1 Ar 26.4444 0 18.8889
454 1 Ar 26.4444 0 22.6667
455 1 Ar 26.4444 0 26.4444
456 1 Ar 26.4444 3.77778 0
457 1 Ar 26.4444 3.77778 3.77778
458 1 Ar 26.4444 3.77778 7.55556
459 1 Ar 26.4444 3.77778 11.3333
460 1 Ar 26.4444 3.77778 15.1111
461 1 Ar 26.4444 3.77778 18.8889
462 1 Ar 26.4444 3.77778 22.6667
463 1 Ar 26.4444 3.77778 26.4444
464 1 Ar 26.4444 7.55556 0
465 1 Ar 26.4444 7.55556 3.77778
466 1 Ar 26.4444 7.55556 7.55556
467 1 Ar 26.4444 7.55556 11.3333
468 1 Ar 26.4444 7.55556 15.1111
469 1 Ar 26.4444 7.55556 18.8889
470 1 Ar 26.4444 7.55556 22.6667
471 1 Ar 26.4444 7.55556 26.4444
472 1 Ar 26.4444 11.3333 0
473 1 Ar 26.4444 11.3333 3.77778
474 1 Ar 26.4444 11.3333 7.55556
475 1 Ar 26.4444 11.3333 11.3333
476 1 Ar 26.4444 11.3333 15.1111
477 1 Ar 26.4444 11.3333 18.8889
478 1 Ar 26.4444 11.3333 22.6667
479 1 Ar 26.4444 11.3333 26.4444
480 1 Ar 26.4444 15.1111 0
481 1 Ar 26.4444 15.1111 3.77778
482 1 Ar 26.4444 15.1111 7.55556
483 1 Ar 26.4444 15.1111 11.3333
484 1 Ar 26.4444 15.1111 15.1111
485 1 Ar 26.4444 15.1111 18.8889
486 1 Ar 26.4444 15.1111 22.6667
487 1 Ar 26.4444 15.1111 26.4444
488 1 Ar 26.4444 18.8889 0
489 1 Ar 26.4444 18.8889 3.77778
490 1 Ar 26.4444 18.8889 7.55556
491 1 Ar 26.4444 18.8889 11.3333
492 1 Ar 26.4444 18.8889 15.1111
493 1 Ar 26.4444 18.8889 18.8889
494 1 Ar 26.4444 18.8889 22.6667
495 1 Ar 26.4444 18.8889 26.4444
496 1 Ar 26.4444 22.6667 0
497 1 Ar 26.4444 22.6667 3.77778
498 1 Ar 26.4444 22.6667 7.55556
499 1 Ar 26.4444 22.6667 11.3333
ITEM: TIMESTEP
19999
ITEM: NUMBER OF ATOMS
500
ITEM: BOX BOUNDS pp pp pp
0 34
0 34
0 34
ITEM: ATOMS id type element xu yu zu
0 1 Ar 31.8057 2.06368 31.6255
1 1 Ar 31.2296 33.9797 3.52137
2 1 Ar 32.5631 0.628546 7.23481
3 1 Ar 33.4368 29.6275 7.09989
4 1 Ar 0.434547 33.912 14.5002
5 1 Ar 29.8579 2.90022 18.3318
6 1 Ar 0.261214 0.242856 24.0387
7 1 Ar 0.886757 2.19004 27.269
8 1 Ar 1.36716 5.53668 0.258011
9 1 Ar 33.5709 4.20704 3.24217
10 1 Ar 0.516864 4.56907 7.09119
11 1 Ar 0.517236 2.94614 11.2785
12 1 Ar 33.8208 3.16574 15.7037
13 1 Ar 33.9338 4.19987 19.0087
14 1 Ar 0.0792402 4.07168 22.7968
15 1 Ar 31.8494 4.10953 25.8915
16 1 Ar 4.28463 7.95165 29.7208
17 1 Ar 33.2742 7.52834 2.17466
18 1 Ar 33.7255 7.95943 6.65692
19 1 Ar 33.8347 7.98186 10.6094
20 1 Ar 0.497423 8.11114 13.9437
21 1 Ar 33.3457 7.69568 17.9196
22 1 Ar 0.849206 7.80612 21.5729
23 1 Ar 0.328411 5.98885 28.9674
24 1 Ar 30.1423 12.4567 33.8257
25 1 Ar 33.2082 11.4347 2.42653
26 1 Ar 1.19754 10.6584 8.32781
27 1 Ar 0.105775 11.4846 12.7266
28 1 Ar 0.712478 10.7839 15.9161
29 1 Ar 33.0297 10.7982 19.1736
30 1 Ar 32.4785 10.6779 23.4016
31 1 Ar 33.1547 10.7432 27.5577
32 1 Ar 33.629 14.3519 0.402671
33 1 Ar 0.792519 15.4546 3.5329
34 1 Ar 32.8477 15.5586 6.71697
35 1 Ar 32.969 14.782 11.3107
36 1 Ar 33.8931 15.0054 15.06
37 1 Ar 0.848069 14.4253 18.507
38 1 Ar 32.6063 16.6869 21.5154
39 1 Ar 0.747048 15.6759 25.8802
40 1 Ar 30.3061 16.0478 0.294091
41 1 Ar 0.0280635 19.5443 3.91629
42 1 Ar 0.101244 17.8337 8.98711
43 1 Ar 31.0526 17.5892 11.1521
44 1 Ar 33.2419 19.767 15.0205
45 1 Ar 0.49499 19.3815 19.122
46 1 Ar 32.9948 19.1289 23.9292
47 1 Ar 2.00472 17.6009 29.2044
48 1 Ar 32.5078 28.9582 33.9447
49 1 Ar 33.9582 23.1014 3.45426
50 1 Ar 33.8411 22.2245 8.60184
51 1 Ar 0.609505 21.6913 12.3439
52 1 Ar 1.75743 23.5179 16.6401
53 1 Ar 33.0649 22.6946 19.3395
54 1 Ar 32.0763 23.5478 22.4438
55 1 Ar 33.4759 23.2574 25.8999
56 1 Ar 32.849 25.5307 32.8094
57 1 Ar 33.9328 26.3835 2.24864
58 1 Ar 33.968 25.62 6.77507
59 1 Ar 0.244343 25.9582 11.0189
60 1 Ar 32.3432 26.423 17.2506
61 1 Ar 0.340531 26.2329 20.5237
62 1 Ar 0.781308 30.5502 23.7347
63 1 Ar 33.3957 24.8768 29.2147
64 1 Ar 3.54652 1.42354 30.2974
65 1 Ar 5.91434 32.7828 0.649161
66 1 Ar 3.79152 0.980216 6.4392
67 1 Ar 4.1741 33.2155 11.1727
68 1 Ar 5.38576 0.608112 14.771
69 1 Ar 2.57387 33.6384 17.1658
70 1 Ar 4.16407 33.7322 20.7962
71 1 Ar 3.9591 0.723537 26.1065
72 1 Ar 3.20359 1.55669 33.6428
73 1 Ar 3.55072 4.45777 3.70067
74 1 Ar 3.6121 4.40081 8.62975
75 1 Ar 4.57546 3.08927 11.6827
76 1 Ar 3.66514 3.69852 15.4575
77 1 Ar 3.71222 4.08715 19.2714
78 1 Ar 4.73857 3.65825 23.3625
79 1 Ar 3.61044 5.3034 26.1253
80 1 Ar 4.57643 7.34073 0.829151
81 1 Ar 2.8971 7.32026 5.5915
82 1 Ar 3.69234 7.89809 8.70241
83 1 Ar 3.01685 6.51847 12.3182
84 1 Ar 4.47044 7.67185 15.1443
85 1 Ar 3.56878 8.01519 18.4221
86 1 Ar 5.13991 8.19976 22.6124
87 1 Ar 1.70488 8.47755 25.7929
88 1 Ar 5.30395 12.0319 31.3791
89 1 Ar 4.16657 11.6269 2.44507
90 1 Ar 4.15323 10.7538 6.40836
91 1 Ar 3.32797 11.919 10.4543
92 1 Ar 4.81439 11.9783 16.251
93 1 Ar 3.23961 11.2157 19.3417
94 1 Ar 3.68864 11.2586 23.0331
95 1 Ar 3.34889 11.6005 26.6491
96 1 Ar 2.13585 16.9425 0.741216
97 1 Ar 4.50286 15.8127 4.01254
98 1 Ar 2.15763 13.8567 5.97654
99 1 Ar 2.87791 15.2974 10.665
100 1 Ar 3.82647 15.1264 14.3556
101 1 Ar 3.95346 14.7808 20.4732
102 1 Ar 4.44954 16.2937 24.5948
103 1 Ar 4.88277 15.8091 28.1615
104 1 Ar 6.15267 18.0265 32.1486
105 1 Ar 3.732 19.2455 3.91867
106 1 Ar 3.64189 19.2706 8.32191
107 1 Ar 3.33013 18.519 11.662
108 1 Ar 3.50784 18.8699 14.9139
109 1 Ar 4.16574 18.4058 18.5272
110 1 Ar 3.08284 18.4003 22.1896
111 1 Ar 4.10769 19.3937 26.6886
112 1 Ar 3.28415 23.9239 33.0544
113 1 Ar 3.9262 22.6194 3.52268
114 1 Ar 2.84299 22.7239 7.1402
115 1 Ar 4.12654 22.186 10.7674
116 1 Ar 4.86624 22.2158 14.695
117 1 Ar 4.31991 22.7402 19.3536
118 1 Ar 1.23104 22.6742 22.3179
119 1 Ar 3.06423 23.3348 25.6177
120 1 Ar 3.80831 27.4298 1.41085
121 1 Ar 3.47496 25.6287 5.1423
122 1 Ar 3.48415 27.1204 8.48558
123 1 Ar 4.34944 25.705 11.664
124 1 Ar 2.30904 26.7897 14.2755
125 1 Ar 3.54967 26.8556 18.3853
126 1 Ar 4.25196 24.9979 22.4067
127 1 Ar 1.85886 27.1758 27.2131
128 1 Ar 7.41511 1.11674 32.5265
129 1 Ar 7.60614 29.6271 1.71542
130 1 Ar 7.48553 33.8921 5.89562
131 1 Ar 8.11773 0.192696 12.1577
132 1 Ar 5.00348 31.3455 15.9022
133 1 Ar 6.64574 0.195131 17.9975
134 1 Ar 8.04666 31.4802 23.252
135 1 Ar 8.38827 33.547 27.8714
136 1 Ar 7.57396 5.3828 32.8092
137 1 Ar 6.28756 1.93543 1.86569
138 1 Ar 7.28595 4.93564 7.51933
139 1 Ar 7.31299 5.52124 11.3412
140 1 Ar 7.73409 3.10823 14.8794
141 1 Ar 7.89546 3.40999 19.0899
142 1 Ar 7.71384 1.23713 24.6185
143 1 Ar 9.6226 7.17677 29.8592
144 1 Ar 9.89489 8.18478 1.21517
145 1 Ar 7.86276 7.3296 4.23451
146 1 Ar 6.75748 8.52895 7.30265
147 1 Ar 7.16836 8.8006 10.7105
148 1 Ar 7.73186 7.34809 14.5421
149 1 Ar 7.24383 6.81564 18.3697
150 1 Ar 8.49866 5.73155 23.3241
151 1 Ar 6.56151 7.46963 26.3006
152 1 Ar 7.50592 11.6542 0.36294
153 1 Ar 8.22027 11.7376 5.27098
154 1 Ar 6.46127 12.2878 8.57131
155 1 Ar 5.84783 11.5116 12.5749
156 1 Ar 8.83124 10.6613 14.7607
157 1 Ar 6.61678 10.2236 18.7219
158 1 Ar 6.89973 12.5056 21.1608
159 1 Ar 7.96684 11.9638 25.082
160 1 Ar 8.01689 17.6634 28.8686
161 1 Ar 7.85861 14.5488 2.68346
162 1 Ar 6.55676 15.0296 6.59244
163 1 Ar 8.03183 15.1954 10.3329
164 1 Ar 7.31146 14.3129 14.8477
165 1 Ar 6.89907 15.2533 19.1433
166 1 Ar 7.89951 15.336 23.4159
167 1 Ar 8.42212 14.1164 28.5191
168 1 Ar 8.18941 17.6422 0.901915
169 1 Ar 7.92125 19.9043 4.16328
170 1 Ar 7.25887 18.6147 7.08813
171 1 Ar 6.78642 19.4014 10.7879
172 1 Ar 7.37436 18.5106 14.7961
173 1 Ar 7.70257 18.6908 18.5674
174 1 Ar 6.61704 18.191 21.6047
175 1 Ar 7.53884 18.6754 25.7243
176 1 Ar 7.72013 21.8697 0.232271
177 1 Ar 7.83706 23.5507 3.52253
178 1 Ar 6.46171 22.0203 6.4952
179 1 Ar 7.62653 23.1359 10.5263
180 1 Ar 8.08265 22.5842 15.4805
181 1 Ar 7.75925 22.9576 20.3734
182 1 Ar 6.81067 22.3073 24.6669
183 1 Ar 6.55782 22.6909 30.1304
184 1 Ar 8.8745 26.1654 1.44109
185 1 Ar 6.94787 26.9941 4.97957
186 1 Ar 7.07463 26.8904 9.77158
187 1 Ar 9.16188 29.8199 12.435
188 1 Ar 7.61661 26.9808 14.9193
189 1 Ar 7.2115 26.1265 18.8189
190 1 Ar 7.8232 25.6988 22.9379
191 1 Ar 5.30095 25.8402 28.778
192 1 Ar 10.5337 33.5498 31.3784
193 1 Ar 9.97233 0.939499 3.36906
194 1 Ar 10.9006 33.8962 7.68612
195 1 Ar 12.5034 33.1625 11.2254
196 1 Ar 10.844 0.600513 14.7697
197 1 Ar 12.3412 29.4972 16.1537
198 1 Ar 11.4713 0.767181 22.4785
199 1 Ar 11.4609 1.05666 26.5499
200 1 Ar 11.6821 3.61359 0.121808
201 1 Ar 11.9048 4.0158 3.72364
202 1 Ar 12.5279 4.07028 7.20108
203 1 Ar 11.0789 3.06185 11.613
204 1 Ar 11.4152 5.29094 15.9722
205 1 Ar 11.3762 4.61596 21.0863
206 1 Ar 11.4131 4.06074 24.6646
207 1 Ar 12.5136 4.93754 28.5445
208 1 Ar 13.2103 7.17978 32.0033
209 1 Ar 11.3092 7.69922 4.56409
210 1 Ar 10.4069 8.05531 8.24977
211 1 Ar 10.659 7.18943 11.5785
212 1 Ar 12.08 9.65084 13.337
213 1 Ar 12.2185 7.67981 19.0869
214 1 Ar 12.244 7.50569 23.0043
215 1 Ar 10.1087 7.45408 26.3748
216 1 Ar 8.82903 11.1242 31.3652
217 1 Ar 12.0859 11.4717 3.56353
218 1 Ar 10.9914 11.8191 7.2131
219 1 Ar 9.89246 11.3011 11.0828
220 1 Ar 12.3032 12.2159 15.6345
221 1 Ar 10.3699 11.4042 18.8933
222 1 Ar 12.4937 11.2132 22.4532
223 1 Ar 11.3537 11.0347 26.2652
224 1 Ar 10.958 13.7728 0.138491
225 1 Ar 11.0983 14.5218 3.98724
226 1 Ar 11.2277 15.4976 7.61776
227 1 Ar 11.7448 14.8179 11.2985
228 1 Ar 10.792 15.4108 15.6696
229 1 Ar 11.2433 14.7336 19.1812
230 1 Ar 11.8505 15.7228 22.6137
231 1 Ar 11.6042 15.6015 26.354
232 1 Ar 11.3949 19.7772 33.67
233 1 Ar 12.0135 17.653 2.27137
234 1 Ar 9.71032 20.434 8.75955
235 1 Ar 10.5029 18.3297 11.5039
236 1 Ar 10.9415 19.5989 15.308
237 1 Ar 11.0065 17.9762 18.2623
238 1 Ar 11.4322 19.2018 23.0118
239 1 Ar 11.0963 18.9128 27.5403
240 1 Ar 11.3589 23.634 0.542799
241 1 Ar 10.9778 21.8128 4.40025
242 1 Ar 9.05211 24.3507 6.88789
243 1 Ar 12.5954 23.1168 11.1347
244 1 Ar 11.3367 22.8959 14.6341
245 1 Ar 11.1267 21.8513 18.5243
246 1 Ar 12.1446 22.6598 23.4261
247 1 Ar 10.6316 22.6323 26.9691
248 1 Ar 10.9732 25.0288 30.9614
249 1 Ar 12.4465 24.6918 3.93227
250 1 Ar 8.12927 30.3292 7.93826
251 1 Ar 10.0017 25.3247 11.4956
252 1 Ar 12.2174 26.829 13.3517
253 1 Ar 10.7185 26.641 18.7451
254 1 Ar 11.5632 26.3164 22.8023
255 1 Ar 9.79247 27.9 27.3432
256 1 Ar 14.8854 33.28 0.593852
257 1 Ar 14.5221 0.39322 3.95874
258 1 Ar 14.428 0.66606 7.7724
259 1 Ar 16.3811 0.22175 12.1514
260 1 Ar 15.0152 32.2995 15.6095
261 1 Ar 16.7366 1.5304 17.1166
262 1 Ar 15.0869 0.561489 22.6967
263 1 Ar 14.6375 32.7004 26.5189
264 1 Ar 15.0224 4.03002 33.5991
265 1 Ar 15.261 3.55629 3.03465
266 1 Ar 16.0154 4.24333 6.31939
267 1 Ar 15.4836 3.59778 10.2556
268 1 Ar 14.0743 2.38852 14.1322
269 1 Ar 14.2458 4.44276 18.01
270 1 Ar 14.7132 4.33188 22.279
271 1 Ar 15.7737 2.7954 25.6599
272 1 Ar 16.3397 9.21202 0.916006
273 1 Ar 14.8094 7.17446 3.96314
274 1 Ar 13.7977 7.35349 7.15332
275 1 Ar 15.4859 7.38424 11.5139
276 1 Ar 15.1791 7.50997 15.3739
277 1 Ar 15.9658 7.58856 18.9366
278 1 Ar 16.055 8.41981 23.2254
279 1 Ar 14.9669 6.52559 26.2234
280 1 Ar 14.9506 12.5988 0.0652739
281 1 Ar 15.8885 12.0497 4.43782
282 1 Ar 15.127 11.3755 7.93588
283 1 Ar 14.7734 10.9415 11.3094
284 1 Ar 15.6542 11.7542 14.5025
285 1 Ar 14.5011 10.2736 17.9229
286 1 Ar 15.8187 12.0472 22.0551
287 1 Ar 15.2187 10.7221 26.3032
288 1 Ar 17.0752 15.5943 1.76132
289 1 Ar 14.7403 15.5375 4.4319
290 1 Ar 15.8115 15.0197 7.75972
291 1 Ar 15.3387 14.4077 10.9487
292 1 Ar 13.9576 15.0815 14.1725
293 1 Ar 15.313 13.8719 18.8492
294 1 Ar 15.571 16.141 22.9863
295 1 Ar 14.987 14.186 28.363
296 1 Ar 15.0338 18.9584 0.313932
297 1 Ar 15.3601 18.7007 3.76224
298 1 Ar 14.1874 18.454 7.13981
299 1 Ar 14.3488 18.3242 11.4658
300 1 Ar 15.4874 18.3248 16.0017
301 1 Ar 14.2404 17.8926 19.6986
302 1 Ar 16.034 20.0508 22.3319
303 1 Ar 14.4224 18.3298 26.2257
304 1 Ar 14.2299 22.5357 1.94331
305 1 Ar 14.9257 22.8387 5.54153
306 1 Ar 15.4186 21.5075 9.38752
307 1 Ar 16.4168 24.6271 11.6532
308 1 Ar 14.6097 22.1457 14.1587
309 1 Ar 15.4742 21.8587 17.7869
310 1 Ar 16.7363 24.2666 20.6877
311 1 Ar 14.1023 21.8599 26.3573
312 1 Ar 15.5585 25.5873 0.383718
313 1 Ar 16.0756 25.7576 3.99019
314 1 Ar 14.2469 25.979 9.72389
315 1 Ar 15.471 29.6818 11.5554
316 1 Ar 14.2723 25.539 16.1609
317 1 Ar 12.8959 29.2748 20.3912
318 1 Ar 15.1478 26.2726 23.3088
319 1 Ar 13.1921 25.3947 26.934
320 1 Ar 18.3813 29.5532 1.37287
321 1 Ar 18.4794 1.06478 3.94212
322 1 Ar 18.45 32.903 7.49526
323 1 Ar 18.9993 32.0362 11.1337
324 1 Ar 19.503 32.4699 14.6735
325 1 Ar 17.6908 31.8538 17.9667
326 1 Ar 18.9389 0.361284 21.7381
327 1 Ar 19.1902 32.427 24.5968
328 1 Ar 18.5492 3.65395 32.5474
329 1 Ar 19.8954 4.15265 3.389
330 1 Ar 18.9948 2.89272 7.72046
331 1 Ar 18.4215 3.62741 11.8897
332 1 Ar 18.3891 4.85091 15.6133
333 1 Ar 17.559 4.78743 20.221
334 1 Ar 18.6519 3.13682 23.5108
335 1 Ar 18.3846 2.22791 28.8155
336 1 Ar 19.0268 7.2094 33.8307
337 1 Ar 18.1485 7.55021 3.65287
338 1 Ar 17.712 7.22242 6.77203
339 1 Ar 19.5579 6.78896 9.80879
340 1 Ar 18.6011 8.30365 14.9346
341 1 Ar 19.6382 7.40339 18.7171
342 1 Ar 19.2579 6.88356 22.4256
343 1 Ar 18.5347 7.45515 25.972
344 1 Ar 18.7215 11.5381 0.754447
345 1 Ar 19.4116 10.7546 4.72237
346 1 Ar 19.0014 11.6788 7.83625
347 1 Ar 19.0545 11.5145 11.5155
348 1 Ar 18.9189 11.9409 15.188
349 1 Ar 17.8181 11.269 18.6459
350 1 Ar 19.1163 10.3902 22.631
351 1 Ar 18.5328 12.271 26.5421
352 1 Ar 18.5467 13.4184 30.9407
353 1 Ar 19.2622 14.7337 4.42688
354 1 Ar 20.8935 15.3391 7.90748
355 1 Ar 18.9271 14.8282 10.8933
356 1 Ar 18.8249 15.1695 14.5625
357 1 Ar 18.5153 15.0195 18.352
358 1 Ar 19.2255 13.8732 21.9033
359 1 Ar 18.81 15.8511 26.1134
360 1 Ar 18.941 18.9289 0.779645
361 1 Ar 19.0642 18.8914 4.37882
362 1 Ar 17.6091 18.4201 7.78879
363 1 Ar 18.0684 19.0552 11.0385
364 1 Ar 19.8021 19.6017 16.3979
365 1 Ar 19.091 18.9901 19.6647
366 1 Ar 19.2366 18.8085 23.3377
367 1 Ar 20.5675 20.5325 30.9836
368 1 Ar 18.7238 22.0958 33.2162
369 1 Ar 19.1822 22.2364 4.5837
370 1 Ar 18.2747 23.7442 8.82726
371 1 Ar 19.1284 22.3078 12.0995
372 1 Ar 20.5802 24.184 15.0503
373 1 Ar 19.3054 22.966 18.5457
374 1 Ar 18.0356 23.5448 24.0739
375 1 Ar 18.3585 21.112 27.8126
376 1 Ar 19.6491 26.0901 32.7244
377 1 Ar 19.2649 26.4725 2.41743
378 1 Ar 19.2317 27.2815 6.0115
379 1 Ar 20.0697 25.9549 11.3676
380 1 Ar 18.0713 27.8609 13.9171
381 1 Ar 18.8869 26.6008 19.2288
382 1 Ar 18.677 27.6849 22.6437
383 1 Ar 19.3292 28.2371 26.1776
384 1 Ar 25.5634 0.443364 31.3467
385 1 Ar 22.0215 1.0398 2.02071
386 1 Ar 22.6738 31.7141 5.11789
387 1 Ar 22.3134 0.419458 12.3838
388 1 Ar 23.5013 31.4918 15.3017
389 1 Ar 20.1076 0.811932 18.4085
390 1 Ar 22.3665 0.879427 22.3946
391 1 Ar 23.037 30.329 24.5329
392 1 Ar 23.4949 4.18713 0.307211
393 1 Ar 23.4653 3.24027 4.42883
394 1 Ar 23.356 2.97922 7.96371
395 1 Ar 22.6864 4.1703 11.8247
396 1 Ar 24.5442 3.87111 15.4704
397 1 Ar 21.9915 3.68922 17.8419
398 1 Ar 21.7853 4.70342 21.8187
399 1 Ar 22.9787 3.56545 27.7857
400 1 Ar 24.2769 8.30027 33.8134
401 1 Ar 22.6861 7.14698 3.3722
402 1 Ar 22.4859 6.80721 7.41826
403 1 Ar 22.1801 8.61703 12.3515
404 1 Ar 23.0676 7.51857 15.4992
405 1 Ar 24.7758 7.37567 19.0514
406 1 Ar 22.8904 8.43859 22.4127
407 1 Ar 22.3731 6.49553 26.4726
408 1 Ar 22.4036 11.2243 0.295138
409 1 Ar 22.9758 12.3471 4.10518
410 1 Ar 24.2795 12.2838 8.18247
411 1 Ar 23.0703 11.9352 11.8449
412 1 Ar 22.3181 11.2041 15.153
413 1 Ar 21.9394 10.7637 19.3032
414 1 Ar 22.7974 12.3382 22.4209
415 1 Ar 22.3118 10.3818 26.6787
416 1 Ar 22.8285 15.8677 0.804386
417 1 Ar 22.7061 16.1228 4.04177
418 1 Ar 24.2934 15.881 7.11206
419 1 Ar 22.6206 15.4198 12.0075
420 1 Ar 22.009 14.4445 15.2395
421 1 Ar 22.1011 16.039 19.2583
422 1 Ar 22.4378 15.5253 22.8115
423 1 Ar 22.3873 15.4672 26.4533
424 1 Ar 23.1986 19.3906 0.0752421
425 1 Ar 24.4501 19.6816 3.02148
426 1 Ar 22.2845 18.4849 6.79764
427 1 Ar 23.6458 18.7807 10.1749
428 1 Ar 23.8669 18.8222 13.6053
429 1 Ar 22.9261 18.9864 18.1729
430 1 Ar 22.8645 18.969 22.4407
431 1 Ar 22.3455 18.9672 25.7358
432 1 Ar 22.053 22.8904 33.6323
433 1 Ar 22.9117 24.0248 4.02837
434 1 Ar 23.2446 22.964 7.97281
435 1 Ar 22.6723 22.8738 11.3761
436 1 Ar 23.5091 22.6144 15.317
437 1 Ar 23.0965 22.5689 18.9255
438 1 Ar 23.0581 22.5765 22.6293
439 1 Ar 22.2246 22.425 26.6641
440 1 Ar 22.288 28.3752 1.79421
441 1 Ar 24.6947 27.2872 3.86564
442 1 Ar 23.3867 26.6466 7.33927
443 1 Ar 24.3266 25.8913 12.6847
444 1 Ar 22.8267 27.2067 15.7634