ITEM: TIMESTEP
-1
ITEM: NUMBER OF ATOMS
500
ITEM: BOX BOUNDS pp pp pp
0 34
0 34
0 34
ITEM: ATOMS id type element xu yu zu
0 1 Ar 0 0 0
1 1 Ar 0 0 3.77778
2 1 Ar 0 0 7.55556
3 1 Ar 0 0 11.3333
4 1 Ar 0 0 15.1111
5 1 Ar 0 0 18.8889
6 1 Ar 0 0 22.6667
7 1 Ar 0 0 26.4444
8 1 Ar 0 3.77778 0
9 1 Ar 0 3.77778 3.77778
10 1 Ar 0 3.77778 7.55556
11 1 Ar 0 3.77778 11.3333
12 1 Ar 0 3.77778 15.1111
13 1 Ar 0 3.77778 18.8889
14 1 Ar 0 3.77778 22.6667
15 1 Ar 0 3.77778 26.4444
16 1 Ar 0 7.55556 0
17 1 Ar 0 7.55556 3.77778
18 1 Ar 0 7.55556 7.55556
19 1 Ar 0 7.55556 11.3333
20 1 Ar 0 7.55556 15.1111
21 1 Ar 0 7.55556 18.8889
22 1 Ar 0 7.55556 22.6667
23 1 Ar 0 7.55556 26.4444
24 1 Ar 0 11.3333 0
25 1 Ar 0 11.3333 3.77778
26 1 Ar 0 11.3333 7.55556
27 1 Ar 0 11.3333 11.3333
28 1 Ar 0 11.3333 15.1111
29 1 Ar 0 11.3333 18.8889
30 1 Ar 0 11.3333 22.6667
31 1 Ar 0 11.3333 26.4444
32 1 Ar 0 15.1111 0
33 1 Ar 0 15.1111 3.77778
34 1 Ar 0 15.1111 7.55556
35 1 Ar 0 15.1111 11.3333
36 1 Ar 0 15.1111 15.1111
37 1 Ar 0 15.1111 18.8889
38 1 Ar 0 15.1111 22.6667
39 1 Ar 0 15.1111 26.4444
40 1 Ar 0 18.8889 0
41 1 Ar 0 18.8889 3.77778
42 1 Ar 0 18.8889 7.55556
43 1 Ar 0 18.8889 11.3333
44 1 Ar 0 18.8889 15.1111
45 1 Ar 0 18.8889 18.8889
46 1 Ar 0 18.8889 22.6667
47 1 Ar 0 18.8889 26.4444
48 1 Ar 0 22.6667 0
49 1 Ar 0 22.6667 3.77778
50 1 Ar 0 22.6667 7.55556
51 1 Ar 0 22.6667 11.3333
52 1 Ar 0 22.6667 15.1111
53 1 Ar 0 22.6667 18.8889
54 1 Ar 0 22.6667 22.6667
55 1 Ar 0 22.6667 26.4444
56 1 Ar 0 26.4444 0
57 1 Ar 0 26.4444 3.77778
58 1 Ar 0 26.4444 7.55556
59 1 Ar 0 26.4444 11.3333
60 1 Ar 0 26.4444 15.1111
61 1 Ar 0 26.4444 18.8889
62 1 Ar 0 26.4444 22.6667
63 1 Ar 0 26.4444 26.4444
64 1 Ar 3.77778 0 0
65 1 Ar 3.77778 0 3.77778
66 1 Ar 3.77778 0 7.55556
67 1 Ar 3.77778 0 11.3333
68 1 Ar 3.77778 0 15.1111
69 1 Ar 3.77778 0 18.8889
70 1 Ar 3.77778 0 22.6667
71 1 Ar 3.77778 0 26.4444
72 1 Ar 3.77778 3.77778 0
73 1 Ar 3.77778 3.77778 3.77778
74 1 Ar 3.77778 3.77778 7.55556
75 1 Ar 3.77778 3.77778 11.3333
76 1 Ar 3.77778 3.77778 15.1111
77 1 Ar 3.77778 3.77778 18.8889
78 1 Ar 3.77778 3.77778 22.6667
79 1 Ar 3.77778 3.77778 26.4444
80 1 Ar 3.77778 7.55556 0
81 1 Ar 3.77778 7.55556 3.77778
82 1 Ar 3.77778 7.55556 7.55556
83 1 Ar 3.77778 7.55556 11.3333
84 1 Ar 3.77778 7.55556 15.1111
85 1 Ar 3.77778 7.55556 18.8889
86 1 Ar 3.77778 7.55556 22.6667
87 1 Ar 3.77778 7.55556 26.4444
88 1 Ar 3.77778 11.3333 0
89 1 Ar 3.77778 11.3333 3.77778
90 1 Ar 3.77778 11.3333 7.55556
91 1 Ar 3.77778 11.3333 11.3333
92 1 Ar 3.77778 11.3333 15.1111
93 1 Ar 3.77778 11.3333 18.8889
94 1 Ar 3.77778 11.3333 22.6667
95 1 Ar 3.77778 11.3333 26.4444
96 1 Ar 3.77778 15.1111 0
97 1 Ar 3.77778 15.1111 3.77778
98 1 Ar 3.77778 15.1111 7.55556
99 1 Ar 3.77778 15.1111 11.3333
100 1 Ar 3.77778 15.1111 15.1111
101 1 Ar 3.77778 15.1111 18.8889
102 1 Ar 3.77778 15.1111 22.6667
103 1 Ar 3.77778 15.1111 26.4444
104 1 Ar 3.77778 18.8889 0
105 1 Ar 3.77778 18.8889 3.77778
106 1 Ar 3.77778 18.8889 7.55556
107 1 Ar 3.77778 18.8889 11.3333
108 1 Ar 3.77778 18.8889 15.1111
109 1 Ar 3.77778 18.8889 18.8889
110 1 Ar 3.77778 18.8889 22.6667
111 1 Ar 3.77778 18.8889 26.4444
112 1 Ar 3.77778 22.6667 0
113 1 Ar 3.77778 22.6667 3.77778
114 1 Ar 3.77778 22.6667 7.55556
115 1 Ar 3.77778 22.6667 11.3333
116 1 Ar 3.77778 22.6667 15.1111
117 1 Ar 3.77778 22.6667 18.8889
118 1 Ar 3.77778 22.6667 22.6667
119 1 Ar 3.77778 22.6667 26.4444
120 1 Ar 3.77778 26.4444 0
121 1 Ar 3.77778 26.4444 3.77778
122 1 Ar 3.77778 26.4444 7.55556
123 1 Ar 3.77778 26.4444 11.3333
124 1 Ar 3.77778 26.4444 15.1111
125 1 Ar 3.77778 26.4444 18.8889
126 1 Ar 3.77778 26.4444 22.6667
127 1 Ar 3.77778 26.4444 26.4444
128 1 Ar 7.55556 0 0
129 1 Ar 7.55556 0 3.77778
130 1 Ar 7.55556 0 7.55556
131 1 Ar 7.55556 0 11.3333
132 1 Ar 7.55556 0 15.1111
133 1 Ar 7.55556 0 18.8889
134 1 Ar 7.55556 0 22.6667
135 1 Ar 7.55556 0 26.4444
136 1 Ar 7.55556 3.77778 0
137 1 Ar 7.55556 3.77778 3.77778
138 1 Ar 7.55556 3.77778 7.55556
139 1 Ar 7.55556 3.77778 11.3333
140 1 Ar 7.55556 3.77778 15.1111
141 1 Ar 7.55556 3.77778 18.8889
142 1 Ar 7.55556 3.77778 22.6667
143 1 Ar 7.55556 3.77778 26.4444
144 1 Ar 7.55556 7.55556 0
145 1 Ar 7.55556 7.55556 3.77778
146 1 Ar 7.55556 7.55556 7.55556
147 1 Ar 7.55556 7.55556 11.3333
148 1 Ar 7.55556 7.55556 15.1111
149 1 Ar 7.55556 7.55556 18.8889
150 1 Ar 7.55556 7.55556 22.6667
151 1 Ar 7.55556 7.55556 26.4444
152 1 Ar 7.55556 11.3333 0
153 1 Ar 7.55556 11.3333 3.77778
154 1 Ar 7.55556 11.3333 7.55556
155 1 Ar 7.55556 11.3333 11.3333
156 1 Ar 7.55556 11.3333 15.1111
157 1 Ar 7.55556 11.3333 18.8889
158 1 Ar 7.55556 11.3333 22.6667
159 1 Ar 7.55556 11.3333 26.4444
160 1 Ar 7.55556 15.1111 0
161 1 Ar 7.55556 15.1111 3.77778
162 1 Ar 7.55556 15.1111 7.55556
163 1 Ar 7.55556 15.1111 11.3333
164 1 Ar 7.55556 15.1111 15.1111
165 1 Ar 7.55556 15.1111 18.8889
166 1 Ar 7.55556 15.1111 22.6667
167 1 Ar 7.55556 15.1111 26.4444
168 1 Ar 7.55556 18.8889 0
169 1 Ar 7.55556 18.8889 3.77778
170 1 Ar 7.55556 18.8889 7.55556
171 1 Ar 7.55556 18.8889 11.3333
172 1 Ar 7.55556 18.8889 15.1111
173 1 Ar 7.55556 18.8889 18.8889
174 1 Ar 7.55556 18.8889 22.6667
175 1 Ar 7.55556 18.8889 26.4444
176 1 Ar 7.55556 22.6667 0
177 1 Ar 7.55556 22.6667 3.77778
178 1 Ar 7.55556 22.6667 7.55556
179 1 Ar 7.55556 22.6667 11.3333
180 1 Ar 7.55556 22.6667 15.1111
181 1 Ar 7.55556 22.6667 18.8889
182 1 Ar 7.55556 22.6667 22.6667
183 1 Ar 7.55556 22.6667 26.4444
184 1 Ar 7.55556 26.4444 0
185 1 Ar 7.55556 26.4444 3.77778
186 1 Ar 7.55556 26.4444 7.55556
187 1 Ar 7.55556 26.4444 11.3333
188 1 Ar 7.55556 26.4444 15.1111
189 1 Ar 7.55556 26.4444 18.8889
190 1 Ar 7.55556 26.4444 22.6667
191 1 Ar 7.55556 26.4444 26.4444
192 1 Ar 11.3333 0 0
193 1 Ar 11.3333 0 3.77778
194 1 Ar 11.3333 0 7.55556
195 1 Ar 11.3333 0 11.3333
196 1 Ar 11.3333 0 15.1111
197 1 Ar 11.3333 0 18.8889
198 1 Ar 11.3333 0 22.6667
199 1 Ar 11.3333 0 26.4444
200 1 Ar 11.3333 3.77778 0
201 1 Ar 11.3333 3.77778 3.77778
202 1 Ar 11.3333 3.77778 7.55556
203 1 Ar 11.3333 3.77778 11.3333
204 1 Ar 11.3333 3.77778 15.1111
205 1 Ar 11.3333 3.77778 18.8889
206 1 Ar 11.3333 3.77778 22.6667
207 1 Ar 11.3333 3.77778 26.4444
208 1 Ar 11.3333 7.55556 0
209 1 Ar 11.3333 7.55556 3.77778
210 1 Ar 11.3333 7.55556 7.55556
211 1 Ar 11.3333 7.55556 11.3333
212 1 Ar 11.3333 7.55556 15.1111
213 1 Ar 11.3333 7.55556 18.8889
214 1 Ar 11.3333 7.55556 22.6667
215 1 Ar 11.3333 7.55556 26.4444
216 1 Ar 11.3333 11.3333 0
217 1 Ar 11.3333 11.3333 3.77778
218 1 Ar 11.3333 11.3333 7.55556
219 1 Ar 11.3333 11.3333 11.3333
220 1 Ar 11.3333 11.3333 15.1111
221 1 Ar 11.3333 11.3333 18.8889
222 1 Ar 11.3333 11.3333 22.6667
223 1 Ar 11.3333 11.3333 26.4444
224 1 Ar 11.3333 15.1111 0
225 1 Ar 11.3333 15.1111 3.77778
226 1 Ar 11.3333 15.1111 7.55556
227 1 Ar 11.3333 15.1111 11.3333
228 1 Ar 11.3333 15.1111 15.1111
229 1 Ar 11.3333 15.1111 18.8889
230 1 Ar 11.3333 15.1111 22.6667
231 1 Ar 11.3333 15.1111 26.4444
232 1 Ar 11.3333 18.8889 0
233 1 Ar 11.3333 18.8889 3.77778
234 1 Ar 11.3333 18.8889 7.55556
235 1 Ar 11.3333 18.8889 11.3333
236 1 Ar 11.3333 18.8889 15.1111
237 1 Ar 11.3333 18.8889 18.8889
238 1 Ar 11.3333 18.8889 22.6667
239 1 Ar 11.3333 18.8889 26.4444
240 1 Ar 11.3333 22.6667 0
241 1 Ar 11.3333 22.6667 3.77778
242 1 Ar 11.3333 22.6667 7.55556
243 1 Ar 11.3333 22.6667 11.3333
244 1 Ar 11.3333 22.6667 15.1111
245 1 Ar 11.3333 22.6667 18.8889
246 1 Ar 11.3333 22.6667 22.6667
247 1 Ar 11.3333 22.6667 26.4444
248 1 Ar 11.3333 26.4444 0
249 1 Ar 11.3333 26.4444 3.77778
250 1 Ar 11.3333 26.4444 7.55556
251 1 Ar 11.3333 26.4444 11.3333
252 1 Ar 11.3333 26.4444 15.1111
253 1 Ar 11.3333 26.4444 18.8889
254 1 Ar 11.3333 26.4444 22.6667
255 1 Ar 11.3333 26.4444 26.4444
256 1 Ar 15.1111 0 0
257 1 Ar 15.1111 0 3.77778
258 1 Ar 15.1111 0 7.55556
259 1 Ar 15.1111 0 11.3333
260 1 Ar 15.1111 0 15.1111
261 1 Ar 15.1111 0 18.8889
262 1 Ar 15.1111 0 22.6667
263 1 Ar 15.1111 0 26.4444
264 1 Ar 15.1111 3.77778 0
265 1 Ar 15.1111 3.77778 3.77778
266 1 Ar 15.1111 3.77778 7.55556
267 1 Ar 15.1111 3.77778 11.3333
268 1 Ar 15.1111 3.77778 15.1111
269 1 Ar 15.1111 3.77778 18.8889
270 1 Ar 15.1111 3.77778 22.6667
271 1 Ar 15.1111 3.77778 26.4444
272 1 Ar 15.1111 7.55556 0
273 1 Ar 15.1111 7.55556 3.77778
274 1 Ar 15.1111 7.55556 7.55556
275 1 Ar 15.1111 7.55556 11.3333
276 1 Ar 15.1111 7.55556 15.1111
277 1 Ar 15.1111 7.55556 18.8889
278 1 Ar 15.1111 7.55556 22.6667
279 1 Ar 15.1111 7.55556 26.4444
280 1 Ar 15.1111 11.3333 0
281 1 Ar 15.1111 11.3333 3.77778
282 1 Ar 15.1111 11.3333 7.55556
283 1 Ar 15.1111 11.3333 11.3333
284 1 Ar 15.1111 11.3333 15.1111
285 1 Ar 15.1111 11.3333 18.8889
286 1 Ar 15.1111 11.3333 22.6667
287 1 Ar 15.1111 11.3333 26.4444
288 1 Ar 15.1111 15.1111 0
289 1 Ar 15.1111 15.1111 3.77778
290 1 Ar 15.1111 15.1111 7.55556
291 1 Ar 15.1111 15.1111 11.3333
292 1 Ar 15.1111 15.1111 15.1111
293 1 Ar 15.1111 15.1111 18.8889
294 1 Ar 15.1111 15.1111 22.6667
295 1 Ar 15.1111 15.1111 26.4444
296 1 Ar 15.1111 18.8889 0
297 1 Ar 15.1111 18.8889 3.77778
298 1 Ar 15.1111 18.8889 7.55556
299 1 Ar 15.1111 18.8889 11.3333
300 1 Ar 15.1111 18.8889 15.1111
301 1 Ar 15.1111 18.8889 18.8889
302 1 Ar 15.1111 18.8889 22.6667
303 1 Ar 15.1111 18.8889 26.4444
304 1 Ar 15.1111 22.6667 0
305 1 Ar 15.1111 22.6667 3.77778
306 1 Ar 15.1111 22.6667 7.55556
307 1 Ar 15.1111 22.6667 11.3333
308 1 Ar 15.1111 22.6667 15.1111
309 1 Ar 15.1111 22.6667 18.8889
310 1 Ar 15.1111 22.6667 22.6667
311 1 Ar 15.1111 22.6667 26.4444
312 1 Ar 15.1111 26.4444 0
313 1 Ar 15.1111 26.4444 3.77778
314 1 Ar 15.1111 26.4444 7.55556
315 1 Ar 15.1111 26.4444 11.3333
316 1 Ar 15.1111 26.4444 15.1111
317 1 Ar 15.1111 26.4444 18.8889
318 1 Ar 15.1111 26.4444 22.6667
319 1 Ar 15.1111 26.4444 26.4444
320 1 Ar 18.8889 0 0
321 1 Ar 18.8889 0 3.77778
322 1 Ar 18.8889 0 7.55556
323 1 Ar 18.8889 0 11.3333
324 1 Ar 18.8889 0 15.1111
325 1 Ar 18.8889 0 18.8889
326 1 Ar 18.8889 0 22.6667
327 1 Ar 18.8889 0 26.4444
328 1 Ar 18.8889 3.77778 0
329 1 Ar 18.8889 3.77778 3.77778
330 1 Ar 18.8889 3.77778 7.55556
331 1 Ar 18.8889 3.77778 11.3333
332 1 Ar 18.8889 3.77778 15.1111
333 1 Ar 18.8889 3.77778 18.8889
334 1 Ar 18.8889 3.77778 22.6667
335 1 Ar 18.8889 3.77778 26.4444
336 1 Ar 18.8889 7.55556 0
337 1 Ar 18.8889 7.55556 3.77778
338 1 Ar 18.8889 7.55556 7.55556
339 1 Ar 18.8889 7.55556 11.3333
340 1 Ar 18.8889 7.55556 15.1111
341 1 Ar 18.8889 7.55556 18.8889
342 1 Ar 18.8889 7.55556 22.6667
343 1 Ar 18.8889 7.55556 26.4444
344 1 Ar 18.8889 11.3333 0
345 1 Ar 18.8889 11.3333 3.77778
346 1 Ar 18.8889 11.3333 7.55556
347 1 Ar 18.8889 11.3333 11.3333
348 1 Ar 18.8889 11.3333 15.1111
349 1 Ar 18.8889 11.3333 18.8889
350 1 Ar 18.8889 11.3333 22.6667
351 1 Ar 18.8889 11.3333 26.4444
352 1 Ar 18.8889 15.1111 0
353 1 Ar 18.8889 15.1111 3.77778
354 1 Ar 18.8889 15.1111 7.55556
355 1 Ar 18.8889 15.1111 11.3333
356 1 Ar 18.8889 15.1111 15.1111
357 1 Ar 18.8889 15.1111 18.8889
358 1 Ar 18.8889 15.1111 22.6667
359 1 Ar 18.8889 15.1111 26.4444
360 1 Ar 18.8889 18.8889 0
361 1 Ar 18.8889 18.8889 3.77778
362 1 Ar 18.8889 18.8889 7.55556
363 1 Ar 18.8889 18.8889 11.3333
364 1 Ar 18.8889 18.8889 15.1111
365 1 Ar 18.8889 18.8889 18.8889
366 1 Ar 18.8889 18.8889 22.6667
367 1 Ar 18.8889 18.8889 26.4444
368 1 Ar 18.8889 22.6667 0
369 1 Ar 18.8889 22.6667 3.77778
370 1 Ar 18.8889 22.6667 7.55556
371 1 Ar 18.8889 22.6667 11.3333
372 1 Ar 18.8889 22.6667 15.1111
373 1 Ar 18.8889 22.6667 18.8889
374 1 Ar 18.8889 22.6667 22.6667
375 1 Ar 18.8889 22.6667 26.4444
376 1 Ar 18.8889 26.4444 0
377 1 Ar 18.8889 26.4444 3.77778
378 1 Ar 18.8889 26.4444 7.55556
379 1 Ar 18.8889 26.4444 11.3333
380 1 Ar 18.8889 26.4444 15.1111
381 1 Ar 18.8889 26.4444 18.8889
382 1 Ar 18.8889 26.4444 22.6667
383 1 Ar 18.8889 26.4444 26.4444
384 1 Ar 22.6667 0 0
385 1 Ar 22.6667 0 3.77778
386 1 Ar 22.6667 0 7.55556
387 1 Ar 22.6667 0 11.3333
388 1 Ar 22.6667 0 15.1111
389 1 Ar 22.6667 0 18.8889
390 1 Ar 22.6667 0 22.6667
391 1 Ar 22.6667 0 26.4444
392 1 Ar 22.6667 3.77778 0
393 1 Ar 22.6667 3.77778 3.77778
394 1 Ar 22.6667 3.77778 7.55556
395 1 Ar 22.6667 3.77778 11.3333
396 1 Ar 22.6667 3.77778 15.1111
397 1 Ar 22.6667 3.77778 18.8889
398 1 Ar 22.6667 3.77778 22.6667
399 1 Ar 22.6667 3.77778 26.4444
400 1 Ar 22.6667 7.55556 0
401 1 Ar 22.6667 7.55556 3.77778
402 1 Ar 22.6667 7.55556 7.55556
403 1 Ar 22.6667 7.55556 11.3333
404 1 Ar 22.6667 7.55556 15.1111
405 1 Ar 22.6667 7.55556 18.8889
406 1 Ar 22.6667 7.55556 22.6667
407 1 Ar 22.6667 7.55556 26.4444
408 1 Ar 22.6667 11.3333 0
409 1 Ar 22.6667 11.3333 3.77778
410 1 Ar 22.6667 11.3333 7.55556
411 1 Ar 22.6667 11.3333 11.3333
412 1 Ar 22.6667 11.3333 15.1111
413 1 Ar 22.6667 11.3333 18.8889
414 1 Ar 22.6667 11.3333 22.6667
415 1 Ar 22.6667 11.3333 26.4444
416 1 Ar 22.6667 15.1111 0
417 1 Ar 22.6667 15.1111 3.77778
418 1 Ar 22.6667 15.1111 7.55556
419 1 Ar 22.6667 15.1111 11.3333
420 1 Ar 22.6667 15.1111 15.1111
421 1 Ar 22.6667 15.1111 18.8889
422 1 Ar 22.6667 15.1111 22.6667
423 1 Ar 22.6667 15.1111 26.4444
424 1 Ar 22.6667 18.8889 0
425 1 Ar 22.6667 18.8889 3.77778
426 1 Ar 22.6667 18.8889 7.55556
427 1 Ar 22.6667 18.8889 11.3333
428 1 Ar 22.6667 18.8889 15.1111
429 1 Ar 22.6667 18.8889 18.8889
430 1 Ar 22.6667 18.8889 22.6667
431 1 Ar 22.6667 18.8889 26.4444
432 1 Ar 22.6667 22.6667 0
433 1 Ar 22.6667 22.6667 3.77778
434 1 Ar 22.6667 22.6667 7.55556
435 1 Ar 22.6667 22.6667 11.3333
436 1 Ar 22.6667 22.6667 15.1111
437 1 Ar 22.6667 22.6667 18.8889
438 1 Ar 22.6667 22.6667 22.6667
439 1 Ar 22.6667 22.6667 26.4444
440 1 Ar 22.6667 26.4444 0
441 1 Ar 22.6667 26.4444 3.77778
442 1 Ar 22.6667 26.4444 7.55556
443 1 Ar 22.6667 26.4444 11.3333
444 1 Ar 22.6667 26.4444 15.1111
445 1 Ar 22.6667 26.4444 18.8889
446 1 Ar 22.6667 26.4444 22.6667
447 1 Ar 22.6667 26.4444 26.4444
448 1 Ar 26.4444 0 0
449 1 Ar 26.4444 0 3.77778
450 1 Ar 26.4444 0 7.55556
451 1 Ar 26.4444 0 11.3333
452 1 Ar 26.4444 0 15.1111
453 1 Ar 26.4444 0 18.8889
454 1 Ar 26.4444 0 22.6667
455 1 Ar 26.4444 0 26.4444
456 1 Ar 26.4444 3.77778 0
457 1 Ar 26.4444 3.77778 3.77778
458 1 Ar 26.4444 3.77778 7.55556
459 1 Ar 26.4444 3.77778 11.3333
460 1 Ar 26.4444 3.77778 15.1111
461 1 Ar 26.4444 3.77778 18.8889
462 1 Ar 26.4444 3.77778 22.6667
463 1 Ar 26.4444 3.77778 26.4444
464 1 Ar 26.4444 7.55556 0
465 1 Ar 26.4444 7.55556 3.77778
466 1 Ar 26.4444 7.55556 7.55556
467 1 Ar 26.4444 7.55556 11.3333
468 1 Ar 26.4444 7.55556 15.1111
469 1 Ar 26.4444 7.55556 18.8889
470 1 Ar 26.4444 7.55556 22.6667
471 1 Ar 26.4444 7.55556 26.4444
472 1 Ar 26.4444 11.3333 0
473 1 Ar 26.4444 11.3333 3.77778
474 1 Ar 26.4444 11.3333 7.55556
475 1 Ar 26.4444 11.3333 11.3333
476 1 Ar 26.4444 11.3333 15.1111
477 1 Ar 26.4444 11.3333 18.8889
478 1 Ar 26.4444 11.3333 22.6667
479 1 Ar 26.4444 11.3333 26.4444
480 1 Ar 26.4444 15.1111 0
481 1 Ar 26.4444 15.1111 3.77778
482 1 Ar 26.4444 15.1111 7.55556
483 1 Ar 26.4444 15.1111 11.3333
484 1 Ar 26.4444 15.1111 15.1111
485 1 Ar 26.4444 15.1111 18.8889
486 1 Ar 26.4444 15.1111 22.6667
487 1 Ar 26.4444 15.1111 26.4444
488 1 Ar 26.4444 18.8889 0
489 1 Ar 26.4444 18.8889 3.77778
490 1 Ar 26.4444 18.8889 7.55556
491 1 Ar 26.4444 18.8889 11.3333
492 1 Ar 26.4444 18.8889 15.1111
493 1 Ar 26.4444 18.8889 18.8889
494 1 Ar 26.4444 18.8889 22.6667
495 1 Ar 26.4444 18.8889 26.4444
496 1 Ar 26.4444 22.6667 0
497 1 Ar 26.4444 22.6667 3.77778
498 1 Ar 26.4444 22.6667 7.55556
499 1 Ar 26.4444 22.6667 11.3333
ITEM: TIMESTEP
19999
ITEM: NUMBER OF ATOMS
500
ITEM: BOX BOUNDS pp pp pp
0 34
0 34
0 34
ITEM: ATOMS id type element xu yu zu
0 1 Ar 33.6164 1.20301 33.18
1 1 Ar 0.318276 1.33749 5.69318
2 1 Ar 0.0452056 32.9629 9.00485
3 1 Ar 32.7672 0.278013 12.3593
4 1 Ar 1.65988 0.0621885 15.7445
5 1 Ar 31.1431 33.5078 17.0804
6 1 Ar 33.5186 32.9224 20.84
7 1 Ar 0.103477 0.362569 25.2413
8 1 Ar 28.8386 33.0273 1.74001
9 1 Ar 1.01044 3.76667 2.88183
10 1 Ar 1.38828 2.80661 8.96475
11 1 Ar 32.1029 3.44693 11.8272
12 1 Ar 1.68301 4.91184 15.9263
13 1 Ar 32.2313 2.99256 17.4128
14 1 Ar 32.8606 4.77924 22.352
15 1 Ar 33.283 3.86135 25.7492
16 1 Ar 30.6736 5.55584 0.698207
17 1 Ar 0.0684236 7.25967 3.74336
18 1 Ar 33.8693 5.55228 7.32501
19 1 Ar 31.9734 9.22546 11.0461
20 1 Ar 1.31203 8.26826 15.5044
21 1 Ar 29.8291 4.2893 19.2303
22 1 Ar 0.554439 7.88856 22.514
23 1 Ar 33.0351 7.50567 26.9538
24 1 Ar 31.662 12.4652 0.311858
25 1 Ar 1.06052 11.7972 2.81836
26 1 Ar 32.2111 13.0468 7.79067
27 1 Ar 0.117208 11.7993 11.3173
28 1 Ar 33.8059 11.2149 15.8102
29 1 Ar 33.0126 10.1852 18.9629
30 1 Ar 2.471 11.7906 23.0087
31 1 Ar 1.21284 12.0729 28.5751
32 1 Ar 1.0948 18.2167 31.0258
33 1 Ar 32.5188 14.2618 4.05009
34 1 Ar 1.19652 14.5401 6.84268
35 1 Ar 0.0354852 16.3134 10.6188
36 1 Ar 33.6666 14.8231 13.7956
37 1 Ar 33.3442 14.3457 17.9707
38 1 Ar 0.555529 15.6419 22.1968
39 1 Ar 0.767335 13.9055 25.1747
40 1 Ar 0.754233 19.8535 33.9103
41 1 Ar 33.4737 19.9149 3.24032
42 1 Ar 32.8778 18.0347 6.95519
43 1 Ar 32.409 20.5937 11.2846
44 1 Ar 0.0544051 19.3307 14.2044
45 1 Ar 0.061745 17.9083 17.8108
46 1 Ar 1.68326 20.4005 23.5451
47 1 Ar 33.1205 17.7031 25.8461
48 1 Ar 31.6335 22.5892 1.18056
49 1 Ar 1.68411 22.9403 3.92147
50 1 Ar 32.4371 22.43 5.63255
51 1 Ar 0.44976 24.1237 11.6847
52 1 Ar 32.586 22.0836 16.6135
53 1 Ar 33.2141 23.8285 20.5176
54 1 Ar 31.8267 23.3769 23.9943
55 1 Ar 33.4079 21.6218 26.2712
56 1 Ar 28.872 26.8578 0.056752
57 1 Ar 0.368179 27.653 4.95367
58 1 Ar 30.2982 25.6592 5.8881
59 1 Ar 0.47883 27.7664 10.3994
60 1 Ar 33.3843 27.7 15.2431
61 1 Ar 3.57096 29.1539 19.3167
62 1 Ar 33.3143 27.1495 22.0105
63 1 Ar 1.71489 22.1926 31.262
64 1 Ar 3.59282 33.8609 33.7811
65 1 Ar 2.55729 33.184 3.24072
66 1 Ar 4.05148 0.665853 6.7343
67 1 Ar 3.36964 0.0198227 10.4935
68 1 Ar 4.79596 32.1347 13.8964
69 1 Ar 4.40695 33.9412 18.5172
70 1 Ar 3.49942 33.8001 22.0823
71 1 Ar 4.45638 33.827 25.6446
72 1 Ar 3.96045 3.36086 0.211416
73 1 Ar 3.92749 3.53099 4.34544
74 1 Ar 4.30292 4.43358 7.58549
75 1 Ar 3.221 5.06956 11.396
76 1 Ar 4.08197 2.45587 14.0459
77 1 Ar 3.17547 3.16507 19.0371
78 1 Ar 2.86539 3.02054 23.6514
79 1 Ar 3.04763 2.63736 27.2301
80 1 Ar 4.96494 7.01649 0.198214
81 1 Ar 4.00953 9.34562 2.96477
82 1 Ar 0.655824 9.8568 7.86938
83 1 Ar 1.75834 8.28152 11.6415
84 1 Ar 4.69279 8.46745 13.9804
85 1 Ar 1.459 7.07569 18.9562
86 1 Ar 3.58172 6.55405 23.8716
87 1 Ar 2.37719 7.1685 27.8033
88 1 Ar 3.28629 11.8882 33.1719
89 1 Ar 4.66561 13.2881 2.16233
90 1 Ar 3.99477 12.31 6.23278
91 1 Ar 3.67357 11.1191 10.2881
92 1 Ar 3.96812 12.7356 13.651
93 1 Ar 3.78998 10.5029 17.1622
94 1 Ar 4.88931 9.41339 22.5108
95 1 Ar 3.74199 9.06389 31.0853
96 1 Ar 4.59613 15.5026 33.2173
97 1 Ar 1.23892 16.9664 2.76241
98 1 Ar 5.79849 15.9362 7.06098
99 1 Ar 3.57605 14.6433 11.0358
100 1 Ar 2.72467 15.6207 16.4241
101 1 Ar 2.88432 13.7255 19.5014
102 1 Ar 3.76109 15.3443 23.6314
103 1 Ar 4.12425 14.9153 27.9068
104 1 Ar 3.7969 18.9933 1.44738
105 1 Ar 3.14936 18.6855 5.5393
106 1 Ar 2.2365 19.3797 8.63791
107 1 Ar 4.16451 18.2777 11.6607
108 1 Ar 4.48762 18.2036 15.5689
109 1 Ar 3.2083 17.6215 19.4343
110 1 Ar 4.6058 18.8549 22.779
111 1 Ar 4.92809 20.7785 26.3255
112 1 Ar 4.43925 19.8697 31.5733
113 1 Ar 4.78619 22.7443 1.85448
114 1 Ar 1.93947 24.0279 7.63198
115 1 Ar 4.3511 22.1542 10.8468
116 1 Ar 2.75047 22.0149 14.5886
117 1 Ar 2.04493 21.642 18.6364
118 1 Ar 3.70103 23.316 22.4826
119 1 Ar 3.05608 24.3182 26.1568
120 1 Ar 2.18635 24.5608 0.234752
121 1 Ar 3.68408 25.5865 4.8619
122 1 Ar 6.1684 28.9381 4.6676
123 1 Ar 3.22428 26.5552 12.0633
124 1 Ar 3.68199 25.7942 15.3151
125 1 Ar 2.5144 25.2922 19.0547
126 1 Ar 3.52873 27.4394 22.7741
127 1 Ar 4.98207 28.4796 27.3926
128 1 Ar 7.12023 0.253612 33.993
129 1 Ar 7.62994 0.219907 3.63351
130 1 Ar 7.9555 33.3317 7.79923
131 1 Ar 6.59034 1.23382 10.5271
132 1 Ar 8.40737 32.6581 14.697
133 1 Ar 7.83308 0.31734 18.2155
134 1 Ar 7.20153 32.6279 21.6898
135 1 Ar 5.98355 2.71016 30.4088
136 1 Ar 8.71968 3.57821 33.1304
137 1 Ar 7.37597 3.73189 2.86886
138 1 Ar 7.8569 3.59095 7.36195
139 1 Ar 7.04297 4.49185 10.986
140 1 Ar 7.87973 2.27871 14.7819
141 1 Ar 5.86112 4.97328 17.1868
142 1 Ar 5.97437 4.44524 20.7939
143 1 Ar 7.40203 3.56899 27.0032
144 1 Ar 8.34966 7.31501 33.6768
145 1 Ar 7.79536 7.07788 3.65853
146 1 Ar 6.85372 7.08205 7.58226
147 1 Ar 7.48103 7.88537 11.257
148 1 Ar 8.58432 6.06976 14.3958
149 1 Ar 4.70679 7.51025 19.0196
150 1 Ar 8.21952 6.59815 22.732
151 1 Ar 6.14845 7.48969 26.8087
152 1 Ar 7.17892 10.7429 33.8662
153 1 Ar 8.60498 11.2777 3.82159
154 1 Ar 8.86864 10.2212 8.41399
155 1 Ar 7.78631 11.6452 11.6089
156 1 Ar 7.7557 10.0621 16.0226
157 1 Ar 7.46718 11.1624 19.4933
158 1 Ar 7.79716 12.1498 23.3727
159 1 Ar 8.72674 10.9479 27.338
160 1 Ar 9.08021 14.4121 0.815337
161 1 Ar 7.34204 14.7482 3.80688
162 1 Ar 9.30611 16.4852 7.01624
163 1 Ar 6.9976 15.4314 11.9351
164 1 Ar 5.84429 15.1678 15.5206
165 1 Ar 6.65333 15.41 18.8361
166 1 Ar 7.35818 15.8768 23.2689
167 1 Ar 7.00257 14.0036 26.0932
168 1 Ar 8.02517 18.5612 0.439629
169 1 Ar 7.34012 19.0018 4.42293
170 1 Ar 7.328 19.5475 8.54367
171 1 Ar 7.34673 19.589 12.2368
172 1 Ar 8.51813 17.6604 14.8018
173 1 Ar 6.70055 18.7327 18.297
174 1 Ar 8.41822 18.7204 21.6922
175 1 Ar 6.50927 17.8266 27.5682
176 1 Ar 8.87273 22.5546 0.467798
177 1 Ar 7.49452 22.3497 3.97624
178 1 Ar 6.09396 22.5655 7.3418
179 1 Ar 8.34642 23.0335 11.0866
180 1 Ar 6.81562 22.2923 14.353
181 1 Ar 7.80371 22.539 19.4727
182 1 Ar 6.86968 21.8169 22.9542
183 1 Ar 7.57657 23.4442 26.3443
184 1 Ar 8.13173 21.7461 30.613
185 1 Ar 8.29808 26.1129 4.47835
186 1 Ar 5.654 26.8093 7.82051
187 1 Ar 8.61411 26.7899 9.26686
188 1 Ar 7.17619 26.0503 14.9513
189 1 Ar 6.4118 26.1196 18.6755
190 1 Ar 7.21338 25.6937 23.4329
191 1 Ar 8.59908 26.6557 26.8371
192 1 Ar 10.692 0.537853 32.2868
193 1 Ar 11.5796 33.8568 3.15375
194 1 Ar 11.491 0.2419 6.40797
195 1 Ar 10.2338 0.665955 10.6359
196 1 Ar 11.7404 33.1089 13.7918
197 1 Ar 11.4398 0.920861 19.6196
198 1 Ar 11.9411 31.4978 22.176
199 1 Ar 14.0108 31.8631 28.1953
200 1 Ar 12.3028 3.31361 0.239721
201 1 Ar 11.4104 3.34773 3.61909
202 1 Ar 11.3303 4.0815 7.00915
203 1 Ar 10.5896 3.93148 12.15
204 1 Ar 12.1668 3.19978 15.1507
205 1 Ar 11.1128 4.89598 18.6114
206 1 Ar 10.8122 3.40027 23.7634
207 1 Ar 13.9403 3.14996 26.3675
208 1 Ar 11.9239 6.97455 33.6109
209 1 Ar 12.563 6.54922 3.8565
210 1 Ar 11.903 7.99797 8.1914
211 1 Ar 11.2433 7.45589 11.7495
212 1 Ar 12.261 7.22325 15.2089
213 1 Ar 8.83971 7.60079 19.2814
214 1 Ar 11.9795 6.8092 21.8537
215 1 Ar 11.1938 6.91653 25.6414
216 1 Ar 13.08 10.1901 0.516258
217 1 Ar 12.0579 10.4008 4.19091
218 1 Ar 10.6299 13.2085 6.46054
219 1 Ar 11.9617 11.6883 10.8099
220 1 Ar 11.058 11.0799 14.777
221 1 Ar 11.5212 11.2626 18.3286
222 1 Ar 10.8943 10.7767 22.3303
223 1 Ar 12.5116 9.04365 27.5863
224 1 Ar 11.9286 15.3419 33.0776
225 1 Ar 11.4368 15.4201 3.58783
226 1 Ar 12.6478 15.6964 8.15579
227 1 Ar 11.6782 15.7999 11.7817
228 1 Ar 10.3855 14.2333 16.7487
229 1 Ar 10.6065 15.4663 20.2153
230 1 Ar 12.3325 14.3568 23.5346
231 1 Ar 8.6615 15.1074 29.08
232 1 Ar 12.608 18.1865 1.05051
233 1 Ar 11.5452 18.7407 4.22717
234 1 Ar 11.9434 19.0428 7.92082
235 1 Ar 11.93 19.713 11.3394
236 1 Ar 11.6345 18.7127 14.3793
237 1 Ar 10.7671 19.069 18.3924
238 1 Ar 12.7718 19.035 22.6322
239 1 Ar 9.84261 17.7556 26.2981
240 1 Ar 12.1255 23.0304 0.407919
241 1 Ar 11.3016 22.5685 3.90637
242 1 Ar 9.80117 23.1834 7.32011
243 1 Ar 11.6791 23.1667 10.7423
244 1 Ar 10.8468 22.6628 15.6126
245 1 Ar 11.6685 22.366 20.1231
246 1 Ar 10.7264 22.8225 23.6381
247 1 Ar 12.8374 24.1626 26.8243
248 1 Ar 11.4908 27.3932 0.641557
249 1 Ar 11.6548 27.1258 4.6276
250 1 Ar 12.7191 30.2377 7.37043
251 1 Ar 11.9563 27.2207 11.1083
252 1 Ar 10.8423 26.5818 15.8808
253 1 Ar 11.7758 26.2169 19.4384
254 1 Ar 12.005 26.8026 23.5519
255 1 Ar 13.935 27.5668 26.779
256 1 Ar 13.2653 30.3962 0.215864
257 1 Ar 15.6152 0.796373 3.26112
258 1 Ar 15.628 33.7317 7.3586
259 1 Ar 15.5343 33.5932 11.3299
260 1 Ar 15.632 0.479732 14.801
261 1 Ar 14.498 32.4916 19.2528
262 1 Ar 14.2749 0.707332 21.9802
263 1 Ar 17.4394 33.7052 27.9872
264 1 Ar 16.8854 2.52963 32.3941
265 1 Ar 15.7586 4.0764 2.64847
266 1 Ar 15.2216 4.11437 7.27747
267 1 Ar 14.254 3.66074 11.223
268 1 Ar 15.5998 3.99917 15.7365
269 1 Ar 14.6363 3.39358 19.5097
270 1 Ar 15.3 4.1924 23.2043
271 1 Ar 12.7216 3.2452 30.143
272 1 Ar 15.7473 7.46677 33.9738
273 1 Ar 15.9754 7.86601 3.3313
274 1 Ar 16.4242 7.70709 7.16062
275 1 Ar 14.989 7.87732 11.011
276 1 Ar 15.6463 7.8101 15.8062
277 1 Ar 14.4833 8.03695 19.7126
278 1 Ar 15.4874 8.14844 22.9796
279 1 Ar 15.4802 6.40988 26.609
280 1 Ar 14.8588 9.79701 30.5161
281 1 Ar 15.3963 11.1817 4.2814
282 1 Ar 14.6933 11.1987 7.84195
283 1 Ar 16.6117 12.1353 10.8402
284 1 Ar 14.8741 11.5665 14.3567
285 1 Ar 15.2838 11.3081 18.4665
286 1 Ar 14.708 11.2951 21.8541
287 1 Ar 15.5397 11.0414 25.8021
288 1 Ar 15.2861 14.33 31.4598
289 1 Ar 14.7101 15.1481 1.45838
290 1 Ar 15.1862 14.8425 5.80293
291 1 Ar 16.0232 15.8652 9.78622
292 1 Ar 15.7765 15.4118 15.7992
293 1 Ar 14.2581 16.1327 19.0965
294 1 Ar 15.3271 14.8043 24.598
295 1 Ar 15.3786 15.0841 28.2539
296 1 Ar 14.1362 19.1533 31.8378
297 1 Ar 15.234 18.8018 3.36606
298 1 Ar 15.2813 18.0656 6.90941
299 1 Ar 15.486 19.0713 10.3123
300 1 Ar 15.4583 19.4542 15.3681
301 1 Ar 14.5532 20.0905 19.0168
302 1 Ar 16.4966 18.4855 23.8248
303 1 Ar 13.0739 20.1392 28.2962
304 1 Ar 15.5893 22.2656 33.0763
305 1 Ar 14.4713 24.1755 4.33859
306 1 Ar 14.7009 22.0761 7.60506
307 1 Ar 15.3371 22.7001 11.325
308 1 Ar 14.3368 23.5913 14.3162
309 1 Ar 14.0829 23.9911 17.9906
310 1 Ar 14.3122 23.7512 23.2613
311 1 Ar 16.0269 21.1829 26.0569
312 1 Ar 14.8227 25.8964 0.106806
313 1 Ar 15.8673 28.4581 5.62917
314 1 Ar 12.7765 26.6055 7.85435
315 1 Ar 15.4678 26.2926 10.9972
316 1 Ar 14.6429 27.21 14.7294
317 1 Ar 14.7364 27.6776 19.9507
318 1 Ar 15.2627 27.9682 23.5154
319 1 Ar 16.2287 27.5358 31.2372
320 1 Ar 21.1 32.4869 2.09429
321 1 Ar 20.219 0.162987 5.09602
322 1 Ar 19.0203 0.109134 8.16217
323 1 Ar 19.7397 33.8634 11.7202
324 1 Ar 19.0727 33.906 15.2008
325 1 Ar 19.9979 0.148779 18.4376
326 1 Ar 19.0023 0.612344 23.6979
327 1 Ar 19.2945 30.6573 27.6233
328 1 Ar 19.9407 1.65291 0.538612
329 1 Ar 18.82 3.34236 4.15782
330 1 Ar 18.8621 3.36064 7.4675
331 1 Ar 19.4032 4.09082 10.6685
332 1 Ar 18.5811 3.00877 13.825
333 1 Ar 17.8951 2.42058 17.2228
334 1 Ar 19.6942 4.51596 23.0462
335 1 Ar 17.8484 3.06981 26.1462
336 1 Ar 19.059 5.93514 0.107691
337 1 Ar 19.4713 6.57393 3.61743
338 1 Ar 20.8531 6.48164 7.6281
339 1 Ar 18.5141 7.57361 10.323
340 1 Ar 19.4048 6.75263 14.0931
341 1 Ar 20.0352 7.30723 17.9139
342 1 Ar 19.1885 8.10466 22.5902
343 1 Ar 18.9964 6.46291 26.0429
344 1 Ar 17.4063 11.3524 32.2298
345 1 Ar 18.5059 10.2443 3.58173
346 1 Ar 18.3164 12.4138 7.75197
347 1 Ar 19.1911 10.6421 12.5473
348 1 Ar 18.1182 11.1451 15.7504
349 1 Ar 18.8269 10.972 18.9056
350 1 Ar 18.116 11.3927 22.3471
351 1 Ar 18.7592 10.4022 26.3666
352 1 Ar 19.0905 15.4978 31.8721
353 1 Ar 18.8563 13.7355 4.0367
354 1 Ar 20.3744 15.1355 7.2025
355 1 Ar 18.9813 14.7853 11.1353
356 1 Ar 19.5386 14.7143 14.9959
357 1 Ar 18.4667 14.5142 18.3244
358 1 Ar 18.4673 15.1589 22.5062
359 1 Ar 18.7071 15.1473 26.2181
360 1 Ar 16.7143 18.1575 0.0683092
361 1 Ar 18.7229 18.7191 4.27246
362 1 Ar 18.7702 19.2138 8.17931
363 1 Ar 20.2566 18.9003 11.3466
364 1 Ar 18.8352 18.1316 14.6559
365 1 Ar 17.8506 18.755 18.2331
366 1 Ar 19.6211 18.535 21.6955
367 1 Ar 19.2093 18.6148 27.5446
368 1 Ar 19.2117 22.0389 33.6154
369 1 Ar 18.4133 22.3534 3.4591
370 1 Ar 19.3399 22.3303 6.68669
371 1 Ar 18.895 23.0984 10.8583
372 1 Ar 18.15 21.9548 14.8459
373 1 Ar 17.7042 22.3697 19.8495
374 1 Ar 18.6445 21.8738 23.2631
375 1 Ar 19.1121 22.7874 27.4582
376 1 Ar 19.1923 26.4226 0.880596
377 1 Ar 17.9087 25.6396 4.37911
378 1 Ar 19.1007 29.8799 4.03981
379 1 Ar 19.5165 26.7758 11.239
380 1 Ar 17.8517 25.592 17.0017
381 1 Ar 18.3993 26.1062 20.2687
382 1 Ar 17.5912 25.077 23.9948
383 1 Ar 19.2546 26.7992 27.2281
384 1 Ar 22.1027 33.0995 31.2571
385 1 Ar 23.4363 29.2488 8.18866
386 1 Ar 22.8696 33.3391 7.11716
387 1 Ar 23.4802 33.0648 11.4175
388 1 Ar 22.2495 0.000119442 14.4993
389 1 Ar 23.8164 33.8862 17.6307
390 1 Ar 20.5714 32.6826 21.7528
391 1 Ar 22.6999 33.1933 26.2965
392 1 Ar 23.7624 2.40239 0.0860669
393 1 Ar 22.1948 4.10457 3.26089
394 1 Ar 22.328 2.89811 6.86991
395 1 Ar 23.7157 2.85603 11.9103
396 1 Ar 21.8338 4.48826 15.1504
397 1 Ar 22.4696 3.29791 18.5101
398 1 Ar 22.902 2.83619 22.0472
399 1 Ar 22.0138 3.76857 26.328
400 1 Ar 25.3644 7.42792 29.9496
401 1 Ar 23.0984 7.99893 3.80004
402 1 Ar 24.671 8.45861 7.02419
403 1 Ar 23.6265 6.39715 10.6739
404 1 Ar 22.9673 7.87736 15.2742
405 1 Ar 23.0675 6.80864 18.967
406 1 Ar 23.0556 6.58268 22.648
407 1 Ar 22.1161 8.23987 25.7056
408 1 Ar 21.3621 11.633 31.4263
409 1 Ar 22.5097 11.8416 3.99396
410 1 Ar 22.3278 12.0878 7.71032
411 1 Ar 23.1309 12.3013 11.1741
412 1 Ar 22.4971 11.4545 15.6887
413 1 Ar 22.277 11.6523 19.3652
414 1 Ar 21.7305 11.87 23.8239
415 1 Ar 23.9407 11.2846 28.2843
416 1 Ar 24.1693 16.0155 32.8648
417 1 Ar 22.0341 15.7758 3.09902
418 1 Ar 24.7148 14.2771 5.67322
419 1 Ar 22.6301 16.0498 11.5019
420 1 Ar 23.3256 14.8062 15.5525
421 1 Ar 23.0695 15.4881 20.7852
422 1 Ar 22.8832 15.0111 24.3532
423 1 Ar 22.4521 15.5855 28.9831
424 1 Ar 21.9902 19.0614 33.8297
425 1 Ar 22.4193 19.5707 4.12397
426 1 Ar 22.8472 18.406 7.42453
427 1 Ar 23.9856 20.0955 10.7373
428 1 Ar 23.2823 18.0596 14.8419
429 1 Ar 22.5556 18.3114 18.8818
430 1 Ar 23.0394 19.452 22.3125
431 1 Ar 22.7678 19.0047 27.3753
432 1 Ar 23.2699 23.1221 0.330625
433 1 Ar 22.4166 23.6226 3.92036
434 1 Ar 23.1255 22.7532 7.37224
435 1 Ar 22.0782 23.6306 11.6641
436 1 Ar 21.8706 21.8372 14.8123
437 1 Ar 22.2654 22.1555 18.6812
438 1 Ar 21.2587 24.2796 23.1751
439 1 Ar 25.5007 22.824 26.6101
440 1 Ar 23.5964 26.9524 0.596735
441 1 Ar 22.3297 28.2268 3.76028
442 1 Ar 21.2967 26.5865 7.39476
443 1 Ar 23.957 26.5156 10.2759
444 1 Ar 25.0213 23.5946 15.8901
445 1 Ar 23.6663 28.278 20.6809