ITEM: TIMESTEP
-1
ITEM: NUMBER OF ATOMS
500
ITEM: BOX BOUNDS pp pp pp
0 27.9504
0 27.9504
0 27.9504
ITEM: ATOMS id type element xu yu zu
0 1 Ar 0 0 0
1 1 Ar 0 0 3.1056
2 1 Ar 0 0 6.2112
3 1 Ar 0 0 9.3168
4 1 Ar 0 0 12.4224
5 1 Ar 0 0 15.528
6 1 Ar 0 0 18.6336
7 1 Ar 0 0 21.7392
8 1 Ar 0 3.1056 0
9 1 Ar 0 3.1056 3.1056
10 1 Ar 0 3.1056 6.2112
11 1 Ar 0 3.1056 9.3168
12 1 Ar 0 3.1056 12.4224
13 1 Ar 0 3.1056 15.528
14 1 Ar 0 3.1056 18.6336
15 1 Ar 0 3.1056 21.7392
16 1 Ar 0 6.2112 0
17 1 Ar 0 6.2112 3.1056
18 1 Ar 0 6.2112 6.2112
19 1 Ar 0 6.2112 9.3168
20 1 Ar 0 6.2112 12.4224
21 1 Ar 0 6.2112 15.528
22 1 Ar 0 6.2112 18.6336
23 1 Ar 0 6.2112 21.7392
24 1 Ar 0 9.3168 0
25 1 Ar 0 9.3168 3.1056
26 1 Ar 0 9.3168 6.2112
27 1 Ar 0 9.3168 9.3168
28 1 Ar 0 9.3168 12.4224
29 1 Ar 0 9.3168 15.528
30 1 Ar 0 9.3168 18.6336
31 1 Ar 0 9.3168 21.7392
32 1 Ar 0 12.4224 0
33 1 Ar 0 12.4224 3.1056
34 1 Ar 0 12.4224 6.2112
35 1 Ar 0 12.4224 9.3168
36 1 Ar 0 12.4224 12.4224
37 1 Ar 0 12.4224 15.528
38 1 Ar 0 12.4224 18.6336
39 1 Ar 0 12.4224 21.7392
40 1 Ar 0 15.528 0
41 1 Ar 0 15.528 3.1056
42 1 Ar 0 15.528 6.2112
43 1 Ar 0 15.528 9.3168
44 1 Ar 0 15.528 12.4224
45 1 Ar 0 15.528 15.528
46 1 Ar 0 15.528 18.6336
47 1 Ar 0 15.528 21.7392
48 1 Ar 0 18.6336 0
49 1 Ar 0 18.6336 3.1056
50 1 Ar 0 18.6336 6.2112
51 1 Ar 0 18.6336 9.3168
52 1 Ar 0 18.6336 12.4224
53 1 Ar 0 18.6336 15.528
54 1 Ar 0 18.6336 18.6336
55 1 Ar 0 18.6336 21.7392
56 1 Ar 0 21.7392 0
57 1 Ar 0 21.7392 3.1056
58 1 Ar 0 21.7392 6.2112
59 1 Ar 0 21.7392 9.3168
60 1 Ar 0 21.7392 12.4224
61 1 Ar 0 21.7392 15.528
62 1 Ar 0 21.7392 18.6336
63 1 Ar 0 21.7392 21.7392
64 1 Ar 3.1056 0 0
65 1 Ar 3.1056 0 3.1056
66 1 Ar 3.1056 0 6.2112
67 1 Ar 3.1056 0 9.3168
68 1 Ar 3.1056 0 12.4224
69 1 Ar 3.1056 0 15.528
70 1 Ar 3.1056 0 18.6336
71 1 Ar 3.1056 0 21.7392
72 1 Ar 3.1056 3.1056 0
73 1 Ar 3.1056 3.1056 3.1056
74 1 Ar 3.1056 3.1056 6.2112
75 1 Ar 3.1056 3.1056 9.3168
76 1 Ar 3.1056 3.1056 12.4224
77 1 Ar 3.1056 3.1056 15.528
78 1 Ar 3.1056 3.1056 18.6336
79 1 Ar 3.1056 3.1056 21.7392
80 1 Ar 3.1056 6.2112 0
81 1 Ar 3.1056 6.2112 3.1056
82 1 Ar 3.1056 6.2112 6.2112
83 1 Ar 3.1056 6.2112 9.3168
84 1 Ar 3.1056 6.2112 12.4224
85 1 Ar 3.1056 6.2112 15.528
86 1 Ar 3.1056 6.2112 18.6336
87 1 Ar 3.1056 6.2112 21.7392
88 1 Ar 3.1056 9.3168 0
89 1 Ar 3.1056 9.3168 3.1056
90 1 Ar 3.1056 9.3168 6.2112
91 1 Ar 3.1056 9.3168 9.3168
92 1 Ar 3.1056 9.3168 12.4224
93 1 Ar 3.1056 9.3168 15.528
94 1 Ar 3.1056 9.3168 18.6336
95 1 Ar 3.1056 9.3168 21.7392
96 1 Ar 3.1056 12.4224 0
97 1 Ar 3.1056 12.4224 3.1056
98 1 Ar 3.1056 12.4224 6.2112
99 1 Ar 3.1056 12.4224 9.3168
100 1 Ar 3.1056 12.4224 12.4224
101 1 Ar 3.1056 12.4224 15.528
102 1 Ar 3.1056 12.4224 18.6336
103 1 Ar 3.1056 12.4224 21.7392
104 1 Ar 3.1056 15.528 0
105 1 Ar 3.1056 15.528 3.1056
106 1 Ar 3.1056 15.528 6.2112
107 1 Ar 3.1056 15.528 9.3168
108 1 Ar 3.1056 15.528 12.4224
109 1 Ar 3.1056 15.528 15.528
110 1 Ar 3.1056 15.528 18.6336
111 1 Ar 3.1056 15.528 21.7392
112 1 Ar 3.1056 18.6336 0
113 1 Ar 3.1056 18.6336 3.1056
114 1 Ar 3.1056 18.6336 6.2112
115 1 Ar 3.1056 18.6336 9.3168
116 1 Ar 3.1056 18.6336 12.4224
117 1 Ar 3.1056 18.6336 15.528
118 1 Ar 3.1056 18.6336 18.6336
119 1 Ar 3.1056 18.6336 21.7392
120 1 Ar 3.1056 21.7392 0
121 1 Ar 3.1056 21.7392 3.1056
122 1 Ar 3.1056 21.7392 6.2112
123 1 Ar 3.1056 21.7392 9.3168
124 1 Ar 3.1056 21.7392 12.4224
125 1 Ar 3.1056 21.7392 15.528
126 1 Ar 3.1056 21.7392 18.6336
127 1 Ar 3.1056 21.7392 21.7392
128 1 Ar 6.2112 0 0
129 1 Ar 6.2112 0 3.1056
130 1 Ar 6.2112 0 6.2112
131 1 Ar 6.2112 0 9.3168
132 1 Ar 6.2112 0 12.4224
133 1 Ar 6.2112 0 15.528
134 1 Ar 6.2112 0 18.6336
135 1 Ar 6.2112 0 21.7392
136 1 Ar 6.2112 3.1056 0
137 1 Ar 6.2112 3.1056 3.1056
138 1 Ar 6.2112 3.1056 6.2112
139 1 Ar 6.2112 3.1056 9.3168
140 1 Ar 6.2112 3.1056 12.4224
141 1 Ar 6.2112 3.1056 15.528
142 1 Ar 6.2112 3.1056 18.6336
143 1 Ar 6.2112 3.1056 21.7392
144 1 Ar 6.2112 6.2112 0
145 1 Ar 6.2112 6.2112 3.1056
146 1 Ar 6.2112 6.2112 6.2112
147 1 Ar 6.2112 6.2112 9.3168
148 1 Ar 6.2112 6.2112 12.4224
149 1 Ar 6.2112 6.2112 15.528
150 1 Ar 6.2112 6.2112 18.6336
151 1 Ar 6.2112 6.2112 21.7392
152 1 Ar 6.2112 9.3168 0
153 1 Ar 6.2112 9.3168 3.1056
154 1 Ar 6.2112 9.3168 6.2112
155 1 Ar 6.2112 9.3168 9.3168
156 1 Ar 6.2112 9.3168 12.4224
157 1 Ar 6.2112 9.3168 15.528
158 1 Ar 6.2112 9.3168 18.6336
159 1 Ar 6.2112 9.3168 21.7392
160 1 Ar 6.2112 12.4224 0
161 1 Ar 6.2112 12.4224 3.1056
162 1 Ar 6.2112 12.4224 6.2112
163 1 Ar 6.2112 12.4224 9.3168
164 1 Ar 6.2112 12.4224 12.4224
165 1 Ar 6.2112 12.4224 15.528
166 1 Ar 6.2112 12.4224 18.6336
167 1 Ar 6.2112 12.4224 21.7392
168 1 Ar 6.2112 15.528 0
169 1 Ar 6.2112 15.528 3.1056
170 1 Ar 6.2112 15.528 6.2112
171 1 Ar 6.2112 15.528 9.3168
172 1 Ar 6.2112 15.528 12.4224
173 1 Ar 6.2112 15.528 15.528
174 1 Ar 6.2112 15.528 18.6336
175 1 Ar 6.2112 15.528 21.7392
176 1 Ar 6.2112 18.6336 0
177 1 Ar 6.2112 18.6336 3.1056
178 1 Ar 6.2112 18.6336 6.2112
179 1 Ar 6.2112 18.6336 9.3168
180 1 Ar 6.2112 18.6336 12.4224
181 1 Ar 6.2112 18.6336 15.528
182 1 Ar 6.2112 18.6336 18.6336
183 1 Ar 6.2112 18.6336 21.7392
184 1 Ar 6.2112 21.7392 0
185 1 Ar 6.2112 21.7392 3.1056
186 1 Ar 6.2112 21.7392 6.2112
187 1 Ar 6.2112 21.7392 9.3168
188 1 Ar 6.2112 21.7392 12.4224
189 1 Ar 6.2112 21.7392 15.528
190 1 Ar 6.2112 21.7392 18.6336
191 1 Ar 6.2112 21.7392 21.7392
192 1 Ar 9.3168 0 0
193 1 Ar 9.3168 0 3.1056
194 1 Ar 9.3168 0 6.2112
195 1 Ar 9.3168 0 9.3168
196 1 Ar 9.3168 0 12.4224
197 1 Ar 9.3168 0 15.528
198 1 Ar 9.3168 0 18.6336
199 1 Ar 9.3168 0 21.7392
200 1 Ar 9.3168 3.1056 0
201 1 Ar 9.3168 3.1056 3.1056
202 1 Ar 9.3168 3.1056 6.2112
203 1 Ar 9.3168 3.1056 9.3168
204 1 Ar 9.3168 3.1056 12.4224
205 1 Ar 9.3168 3.1056 15.528
206 1 Ar 9.3168 3.1056 18.6336
207 1 Ar 9.3168 3.1056 21.7392
208 1 Ar 9.3168 6.2112 0
209 1 Ar 9.3168 6.2112 3.1056
210 1 Ar 9.3168 6.2112 6.2112
211 1 Ar 9.3168 6.2112 9.3168
212 1 Ar 9.3168 6.2112 12.4224
213 1 Ar 9.3168 6.2112 15.528
214 1 Ar 9.3168 6.2112 18.6336
215 1 Ar 9.3168 6.2112 21.7392
216 1 Ar 9.3168 9.3168 0
217 1 Ar 9.3168 9.3168 3.1056
218 1 Ar 9.3168 9.3168 6.2112
219 1 Ar 9.3168 9.3168 9.3168
220 1 Ar 9.3168 9.3168 12.4224
221 1 Ar 9.3168 9.3168 15.528
222 1 Ar 9.3168 9.3168 18.6336
223 1 Ar 9.3168 9.3168 21.7392
224 1 Ar 9.3168 12.4224 0
225 1 Ar 9.3168 12.4224 3.1056
226 1 Ar 9.3168 12.4224 6.2112
227 1 Ar 9.3168 12.4224 9.3168
228 1 Ar 9.3168 12.4224 12.4224
229 1 Ar 9.3168 12.4224 15.528
230 1 Ar 9.3168 12.4224 18.6336
231 1 Ar 9.3168 12.4224 21.7392
232 1 Ar 9.3168 15.528 0
233 1 Ar 9.3168 15.528 3.1056
234 1 Ar 9.3168 15.528 6.2112
235 1 Ar 9.3168 15.528 9.3168
236 1 Ar 9.3168 15.528 12.4224
237 1 Ar 9.3168 15.528 15.528
238 1 Ar 9.3168 15.528 18.6336
239 1 Ar 9.3168 15.528 21.7392
240 1 Ar 9.3168 18.6336 0
241 1 Ar 9.3168 18.6336 3.1056
242 1 Ar 9.3168 18.6336 6.2112
243 1 Ar 9.3168 18.6336 9.3168
244 1 Ar 9.3168 18.6336 12.4224
245 1 Ar 9.3168 18.6336 15.528
246 1 Ar 9.3168 18.6336 18.6336
247 1 Ar 9.3168 18.6336 21.7392
248 1 Ar 9.3168 21.7392 0
249 1 Ar 9.3168 21.7392 3.1056
250 1 Ar 9.3168 21.7392 6.2112
251 1 Ar 9.3168 21.7392 9.3168
252 1 Ar 9.3168 21.7392 12.4224
253 1 Ar 9.3168 21.7392 15.528
254 1 Ar 9.3168 21.7392 18.6336
255 1 Ar 9.3168 21.7392 21.7392
256 1 Ar 12.4224 0 0
257 1 Ar 12.4224 0 3.1056
258 1 Ar 12.4224 0 6.2112
259 1 Ar 12.4224 0 9.3168
260 1 Ar 12.4224 0 12.4224
261 1 Ar 12.4224 0 15.528
262 1 Ar 12.4224 0 18.6336
263 1 Ar 12.4224 0 21.7392
264 1 Ar 12.4224 3.1056 0
265 1 Ar 12.4224 3.1056 3.1056
266 1 Ar 12.4224 3.1056 6.2112
267 1 Ar 12.4224 3.1056 9.3168
268 1 Ar 12.4224 3.1056 12.4224
269 1 Ar 12.4224 3.1056 15.528
270 1 Ar 12.4224 3.1056 18.6336
271 1 Ar 12.4224 3.1056 21.7392
272 1 Ar 12.4224 6.2112 0
273 1 Ar 12.4224 6.2112 3.1056
274 1 Ar 12.4224 6.2112 6.2112
275 1 Ar 12.4224 6.2112 9.3168
276 1 Ar 12.4224 6.2112 12.4224
277 1 Ar 12.4224 6.2112 15.528
278 1 Ar 12.4224 6.2112 18.6336
279 1 Ar 12.4224 6.2112 21.7392
280 1 Ar 12.4224 9.3168 0
281 1 Ar 12.4224 9.3168 3.1056
282 1 Ar 12.4224 9.3168 6.2112
283 1 Ar 12.4224 9.3168 9.3168
284 1 Ar 12.4224 9.3168 12.4224
285 1 Ar 12.4224 9.3168 15.528
286 1 Ar 12.4224 9.3168 18.6336
287 1 Ar 12.4224 9.3168 21.7392
288 1 Ar 12.4224 12.4224 0
289 1 Ar 12.4224 12.4224 3.1056
290 1 Ar 12.4224 12.4224 6.2112
291 1 Ar 12.4224 12.4224 9.3168
292 1 Ar 12.4224 12.4224 12.4224
293 1 Ar 12.4224 12.4224 15.528
294 1 Ar 12.4224 12.4224 18.6336
295 1 Ar 12.4224 12.4224 21.7392
296 1 Ar 12.4224 15.528 0
297 1 Ar 12.4224 15.528 3.1056
298 1 Ar 12.4224 15.528 6.2112
299 1 Ar 12.4224 15.528 9.3168
300 1 Ar 12.4224 15.528 12.4224
301 1 Ar 12.4224 15.528 15.528
302 1 Ar 12.4224 15.528 18.6336
303 1 Ar 12.4224 15.528 21.7392
304 1 Ar 12.4224 18.6336 0
305 1 Ar 12.4224 18.6336 3.1056
306 1 Ar 12.4224 18.6336 6.2112
307 1 Ar 12.4224 18.6336 9.3168
308 1 Ar 12.4224 18.6336 12.4224
309 1 Ar 12.4224 18.6336 15.528
310 1 Ar 12.4224 18.6336 18.6336
311 1 Ar 12.4224 18.6336 21.7392
312 1 Ar 12.4224 21.7392 0
313 1 Ar 12.4224 21.7392 3.1056
314 1 Ar 12.4224 21.7392 6.2112
315 1 Ar 12.4224 21.7392 9.3168
316 1 Ar 12.4224 21.7392 12.4224
317 1 Ar 12.4224 21.7392 15.528
318 1 Ar 12.4224 21.7392 18.6336
319 1 Ar 12.4224 21.7392 21.7392
320 1 Ar 15.528 0 0
321 1 Ar 15.528 0 3.1056
322 1 Ar 15.528 0 6.2112
323 1 Ar 15.528 0 9.3168
324 1 Ar 15.528 0 12.4224
325 1 Ar 15.528 0 15.528
326 1 Ar 15.528 0 18.6336
327 1 Ar 15.528 0 21.7392
328 1 Ar 15.528 3.1056 0
329 1 Ar 15.528 3.1056 3.1056
330 1 Ar 15.528 3.1056 6.2112
331 1 Ar 15.528 3.1056 9.3168
332 1 Ar 15.528 3.1056 12.4224
333 1 Ar 15.528 3.1056 15.528
334 1 Ar 15.528 3.1056 18.6336
335 1 Ar 15.528 3.1056 21.7392
336 1 Ar 15.528 6.2112 0
337 1 Ar 15.528 6.2112 3.1056
338 1 Ar 15.528 6.2112 6.2112
339 1 Ar 15.528 6.2112 9.3168
340 1 Ar 15.528 6.2112 12.4224
341 1 Ar 15.528 6.2112 15.528
342 1 Ar 15.528 6.2112 18.6336
343 1 Ar 15.528 6.2112 21.7392
344 1 Ar 15.528 9.3168 0
345 1 Ar 15.528 9.3168 3.1056
346 1 Ar 15.528 9.3168 6.2112
347 1 Ar 15.528 9.3168 9.3168
348 1 Ar 15.528 9.3168 12.4224
349 1 Ar 15.528 9.3168 15.528
350 1 Ar 15.528 9.3168 18.6336
351 1 Ar 15.528 9.3168 21.7392
352 1 Ar 15.528 12.4224 0
353 1 Ar 15.528 12.4224 3.1056
354 1 Ar 15.528 12.4224 6.2112
355 1 Ar 15.528 12.4224 9.3168
356 1 Ar 15.528 12.4224 12.4224
357 1 Ar 15.528 12.4224 15.528
358 1 Ar 15.528 12.4224 18.6336
359 1 Ar 15.528 12.4224 21.7392
360 1 Ar 15.528 15.528 0
361 1 Ar 15.528 15.528 3.1056
362 1 Ar 15.528 15.528 6.2112
363 1 Ar 15.528 15.528 9.3168
364 1 Ar 15.528 15.528 12.4224
365 1 Ar 15.528 15.528 15.528
366 1 Ar 15.528 15.528 18.6336
367 1 Ar 15.528 15.528 21.7392
368 1 Ar 15.528 18.6336 0
369 1 Ar 15.528 18.6336 3.1056
370 1 Ar 15.528 18.6336 6.2112
371 1 Ar 15.528 18.6336 9.3168
372 1 Ar 15.528 18.6336 12.4224
373 1 Ar 15.528 18.6336 15.528
374 1 Ar 15.528 18.6336 18.6336
375 1 Ar 15.528 18.6336 21.7392
376 1 Ar 15.528 21.7392 0
377 1 Ar 15.528 21.7392 3.1056
378 1 Ar 15.528 21.7392 6.2112
379 1 Ar 15.528 21.7392 9.3168
380 1 Ar 15.528 21.7392 12.4224
381 1 Ar 15.528 21.7392 15.528
382 1 Ar 15.528 21.7392 18.6336
383 1 Ar 15.528 21.7392 21.7392
384 1 Ar 18.6336 0 0
385 1 Ar 18.6336 0 3.1056
386 1 Ar 18.6336 0 6.2112
387 1 Ar 18.6336 0 9.3168
388 1 Ar 18.6336 0 12.4224
389 1 Ar 18.6336 0 15.528
390 1 Ar 18.6336 0 18.6336
391 1 Ar 18.6336 0 21.7392
392 1 Ar 18.6336 3.1056 0
393 1 Ar 18.6336 3.1056 3.1056
394 1 Ar 18.6336 3.1056 6.2112
395 1 Ar 18.6336 3.1056 9.3168
396 1 Ar 18.6336 3.1056 12.4224
397 1 Ar 18.6336 3.1056 15.528
398 1 Ar 18.6336 3.1056 18.6336
399 1 Ar 18.6336 3.1056 21.7392
400 1 Ar 18.6336 6.2112 0
401 1 Ar 18.6336 6.2112 3.1056
402 1 Ar 18.6336 6.2112 6.2112
403 1 Ar 18.6336 6.2112 9.3168
404 1 Ar 18.6336 6.2112 12.4224
405 1 Ar 18.6336 6.2112 15.528
406 1 Ar 18.6336 6.2112 18.6336
407 1 Ar 18.6336 6.2112 21.7392
408 1 Ar 18.6336 9.3168 0
409 1 Ar 18.6336 9.3168 3.1056
410 1 Ar 18.6336 9.3168 6.2112
411 1 Ar 18.6336 9.3168 9.3168
412 1 Ar 18.6336 9.3168 12.4224
413 1 Ar 18.6336 9.3168 15.528
414 1 Ar 18.6336 9.3168 18.6336
415 1 Ar 18.6336 9.3168 21.7392
416 1 Ar 18.6336 12.4224 0
417 1 Ar 18.6336 12.4224 3.1056
418 1 Ar 18.6336 12.4224 6.2112
419 1 Ar 18.6336 12.4224 9.3168
420 1 Ar 18.6336 12.4224 12.4224
421 1 Ar 18.6336 12.4224 15.528
422 1 Ar 18.6336 12.4224 18.6336
423 1 Ar 18.6336 12.4224 21.7392
424 1 Ar 18.6336 15.528 0
425 1 Ar 18.6336 15.528 3.1056
426 1 Ar 18.6336 15.528 6.2112
427 1 Ar 18.6336 15.528 9.3168
428 1 Ar 18.6336 15.528 12.4224
429 1 Ar 18.6336 15.528 15.528
430 1 Ar 18.6336 15.528 18.6336
431 1 Ar 18.6336 15.528 21.7392
432 1 Ar 18.6336 18.6336 0
433 1 Ar 18.6336 18.6336 3.1056
434 1 Ar 18.6336 18.6336 6.2112
435 1 Ar 18.6336 18.6336 9.3168
436 1 Ar 18.6336 18.6336 12.4224
437 1 Ar 18.6336 18.6336 15.528
438 1 Ar 18.6336 18.6336 18.6336
439 1 Ar 18.6336 18.6336 21.7392
440 1 Ar 18.6336 21.7392 0
441 1 Ar 18.6336 21.7392 3.1056
442 1 Ar 18.6336 21.7392 6.2112
443 1 Ar 18.6336 21.7392 9.3168
444 1 Ar 18.6336 21.7392 12.4224
445 1 Ar 18.6336 21.7392 15.528
446 1 Ar 18.6336 21.7392 18.6336
447 1 Ar 18.6336 21.7392 21.7392
448 1 Ar 21.7392 0 0
449 1 Ar 21.7392 0 3.1056
450 1 Ar 21.7392 0 6.2112
451 1 Ar 21.7392 0 9.3168
452 1 Ar 21.7392 0 12.4224
453 1 Ar 21.7392 0 15.528
454 1 Ar 21.7392 0 18.6336
455 1 Ar 21.7392 0 21.7392
456 1 Ar 21.7392 3.1056 0
457 1 Ar 21.7392 3.1056 3.1056
458 1 Ar 21.7392 3.1056 6.2112
459 1 Ar 21.7392 3.1056 9.3168
460 1 Ar 21.7392 3.1056 12.4224
461 1 Ar 21.7392 3.1056 15.528
462 1 Ar 21.7392 3.1056 18.6336
463 1 Ar 21.7392 3.1056 21.7392
464 1 Ar 21.7392 6.2112 0
465 1 Ar 21.7392 6.2112 3.1056
466 1 Ar 21.7392 6.2112 6.2112
467 1 Ar 21.7392 6.2112 9.3168
468 1 Ar 21.7392 6.2112 12.4224
469 1 Ar 21.7392 6.2112 15.528
470 1 Ar 21.7392 6.2112 18.6336
471 1 Ar 21.7392 6.2112 21.7392
472 1 Ar 21.7392 9.3168 0
473 1 Ar 21.7392 9.3168 3.1056
474 1 Ar 21.7392 9.3168 6.2112
475 1 Ar 21.7392 9.3168 9.3168
476 1 Ar 21.7392 9.3168 12.4224
477 1 Ar 21.7392 9.3168 15.528
478 1 Ar 21.7392 9.3168 18.6336
479 1 Ar 21.7392 9.3168 21.7392
480 1 Ar 21.7392 12.4224 0
481 1 Ar 21.7392 12.4224 3.1056
482 1 Ar 21.7392 12.4224 6.2112
483 1 Ar 21.7392 12.4224 9.3168
484 1 Ar 21.7392 12.4224 12.4224
485 1 Ar 21.7392 12.4224 15.528
486 1 Ar 21.7392 12.4224 18.6336
487 1 Ar 21.7392 12.4224 21.7392
488 1 Ar 21.7392 15.528 0
489 1 Ar 21.7392 15.528 3.1056
490 1 Ar 21.7392 15.528 6.2112
491 1 Ar 21.7392 15.528 9.3168
492 1 Ar 21.7392 15.528 12.4224
493 1 Ar 21.7392 15.528 15.528
494 1 Ar 21.7392 15.528 18.6336
495 1 Ar 21.7392 15.528 21.7392
496 1 Ar 21.7392 18.6336 0
497 1 Ar 21.7392 18.6336 3.1056
498 1 Ar 21.7392 18.6336 6.2112
499 1 Ar 21.7392 18.6336 9.3168
ITEM: TIMESTEP
19999
ITEM: NUMBER OF ATOMS
500
ITEM: BOX BOUNDS pp pp pp
0 27.9504
0 27.9504
0 27.9504
ITEM: ATOMS id type element xu yu zu
0 1 Ar 27.4029 27.5512 26.3252
1 1 Ar 26.3679 27.3293 1.90993
2 1 Ar 27.4601 27.7835 5.80205
3 1 Ar 27.1462 27.4461 9.48555
4 1 Ar 0.6888 27.3049 12.8271
5 1 Ar 25.6848 26.7182 15.4159
6 1 Ar 26.9918 27.1719 18.7433
7 1 Ar 26.825 26.392 22.9352
8 1 Ar 25.9758 2.93968 27.1806
9 1 Ar 27.5934 2.75044 2.6067
10 1 Ar 27.8956 3.02921 5.72338
11 1 Ar 27.0097 2.69696 9.24135
12 1 Ar 27.8712 3.07821 12.499
13 1 Ar 26.6791 2.74013 15.7819
14 1 Ar 27.3832 2.62607 19.1794
15 1 Ar 26.8563 2.74492 22.3598
16 1 Ar 27.4948 6.1516 27.1578
17 1 Ar 0.144365 5.93869 2.70981
18 1 Ar 26.8789 6.15817 6.55468
19 1 Ar 26.3666 6.12865 9.57253
20 1 Ar 27.555 6.35076 12.3607
21 1 Ar 27.5437 5.92271 15.6866
22 1 Ar 27.1868 6.21283 19.1116
23 1 Ar 27.5252 6.04149 22.6907
24 1 Ar 26.8007 9.89369 27.5089
25 1 Ar 26.8807 8.9926 2.8484
26 1 Ar 27.0996 9.37871 6.27685
27 1 Ar 27.738 9.27856 9.5143
28 1 Ar 26.0479 9.4183 12.9616
29 1 Ar 27.4609 9.15913 15.9098
30 1 Ar 27.8264 9.37261 19.8831
31 1 Ar 27.1678 9.87105 23.8434
32 1 Ar 0.0747687 13.0314 26.3995
33 1 Ar 27.2309 12.072 2.39292
34 1 Ar 27.6875 12.3118 5.99081
35 1 Ar 27.5981 12.755 9.24903
36 1 Ar 0.189317 12.4801 12.333
37 1 Ar 25.5735 12.1872 14.6426
38 1 Ar 27.1664 12.452 18.3424
39 1 Ar 27.5618 12.383 21.4042
40 1 Ar 27.2942 15.9889 27.3678
41 1 Ar 27.4281 15.5586 2.73913
42 1 Ar 27.6046 15.6798 6.071
43 1 Ar 26.186 16.2955 9.45205
44 1 Ar 26.1289 15.057 12.6883
45 1 Ar 27.3162 15.104 15.6217
46 1 Ar 27.6716 15.9283 19.5704
47 1 Ar 26.5985 15.2399 23.0381
48 1 Ar 26.7768 19.4358 27.2759
49 1 Ar 26.7351 19.2202 2.7139
50 1 Ar 25.9763 18.6341 6.05896
51 1 Ar 27.4067 19.5647 9.01293
52 1 Ar 27.2802 18.5282 12.3597
53 1 Ar 26.2406 18.3683 15.5581
54 1 Ar 27.1533 19.6981 19.0009
55 1 Ar 26.9944 18.61 22.3341
56 1 Ar 25.2556 22.4923 27.4163
57 1 Ar 27.2329 22.8251 3.13314
58 1 Ar 26.9958 21.966 6.28572
59 1 Ar 26.8393 23.0615 9.21416
60 1 Ar 27.0692 22.2713 12.7613
61 1 Ar 27.4169 22.1961 16.0671
62 1 Ar 26.0797 23.7529 18.5678
63 1 Ar 0.196544 21.6177 23.1925
64 1 Ar 2.73554 26.791 0.208399
65 1 Ar 2.37894 0.121833 3.27507
66 1 Ar 2.46763 26.4924 6.30213
67 1 Ar 2.6177 0.098427 9.57165
68 1 Ar 3.53494 25.5804 11.5815
69 1 Ar 2.54887 26.8146 15.4868
70 1 Ar 2.64136 27.5004 18.6849
71 1 Ar 2.50302 27.435 22.0445
72 1 Ar 2.70297 2.75323 27.1529
73 1 Ar 2.72602 3.38948 3.07299
74 1 Ar 2.90865 2.21429 6.15931
75 1 Ar 2.49428 3.21717 9.21042
76 1 Ar 2.82663 1.96949 12.6746
77 1 Ar 2.90483 2.51022 15.9361
78 1 Ar 2.7782 2.72355 19.5408
79 1 Ar 2.69 2.75328 22.6289
80 1 Ar 2.74326 6.26074 0.0924211
81 1 Ar 3.26699 6.45548 3.05973
82 1 Ar 2.48899 5.8223 6.03476
83 1 Ar 1.81977 6.35385 9.06176
84 1 Ar 2.93116 6.16538 12.5072
85 1 Ar 2.67346 5.94251 16.1075
86 1 Ar 2.51389 6.14794 19.4234
87 1 Ar 2.66672 6.13317 23.1822
88 1 Ar 3.28023 9.37321 26.6824
89 1 Ar 2.22287 9.33042 1.86579
90 1 Ar 2.98202 9.34742 5.81424
91 1 Ar 3.10281 9.27388 9.07148
92 1 Ar 2.32032 9.65552 12.1215
93 1 Ar 3.0248 9.12778 15.3906
94 1 Ar 2.9525 9.26079 19.0898
95 1 Ar 2.4585 9.29734 23.413
96 1 Ar 3.08758 12.4025 27.7486
97 1 Ar 2.71521 12.231 3.06817
98 1 Ar 2.91062 12.4794 6.48825
99 1 Ar 2.90151 12.3437 9.90772
100 1 Ar 3.47566 12.5931 13.2415
101 1 Ar 1.09445 12.1333 15.7383
102 1 Ar 2.43783 12.6422 18.9862
103 1 Ar 2.8324 12.5183 22.6087
104 1 Ar 3.05605 15.4944 26.9807
105 1 Ar 2.58039 15.565 3.11601
106 1 Ar 3.17723 15.7386 6.25496
107 1 Ar 1.47466 15.5452 9.00513
108 1 Ar 2.57739 15.3655 12.2308
109 1 Ar 2.77504 15.0238 15.5117
110 1 Ar 3.0627 16.0693 18.6411
111 1 Ar 2.66095 16.2621 22.0142
112 1 Ar 3.17057 18.7793 26.6581
113 1 Ar 2.05548 18.7959 1.94654
114 1 Ar 1.66585 19.5299 5.72259
115 1 Ar 3.12065 18.5857 8.70223
116 1 Ar 2.91368 19.207 11.892
117 1 Ar 1.93731 18.4366 15.0551
118 1 Ar 2.81961 19.306 18.3144
119 1 Ar 2.81428 19.7971 21.7557
120 1 Ar 2.03295 22.3983 27.2855
121 1 Ar 2.67287 21.8554 2.75897
122 1 Ar 2.80642 22.6738 6.09809
123 1 Ar 2.41372 22.609 9.37594
124 1 Ar 2.66351 22.5334 12.63
125 1 Ar 2.78228 22.0486 16.235
126 1 Ar 1.82193 22.8161 19.4215
127 1 Ar 3.41174 23.2414 23.0825
128 1 Ar 5.91479 27.3521 27.5506
129 1 Ar 6.2238 27.5615 2.91312
130 1 Ar 5.8929 27.3052 6.19268
131 1 Ar 6.03317 27.2445 9.47233
132 1 Ar 6.46203 27.1126 12.6274
133 1 Ar 5.44267 0.35096 15.4541
134 1 Ar 5.81863 26.6643 18.6467
135 1 Ar 5.87834 27.7467 22.0956
136 1 Ar 6.17691 2.53401 27.2263
137 1 Ar 6.01587 2.89178 2.59135
138 1 Ar 6.01778 2.94311 5.81295
139 1 Ar 6.11021 3.15121 9.32026
140 1 Ar 6.06416 2.76104 12.5043
141 1 Ar 6.11712 3.32933 15.5113
142 1 Ar 6.02758 2.13561 18.8847
143 1 Ar 6.23651 2.90742 22.8307
144 1 Ar 5.86251 5.85102 27.0086
145 1 Ar 6.41198 6.23006 2.17042
146 1 Ar 6.01389 6.23996 5.80085
147 1 Ar 5.32238 6.36443 9.35752
148 1 Ar 6.54194 6.10617 12.4996
149 1 Ar 5.78289 6.2866 15.825
150 1 Ar 5.92803 5.3701 19.0875
151 1 Ar 5.8984 6.19549 22.441
152 1 Ar 6.44063 9.02878 27.0591
153 1 Ar 6.14127 9.41516 2.59448
154 1 Ar 6.2467 9.58819 6.26891
155 1 Ar 6.47747 9.33917 9.61662
156 1 Ar 5.61719 9.35587 12.8724
157 1 Ar 6.19525 9.3473 15.8919
158 1 Ar 6.09543 8.77299 19.3443
159 1 Ar 6.27662 9.27933 23.2557
160 1 Ar 6.62704 12.2378 27.1014
161 1 Ar 6.23212 12.575 2.56716
162 1 Ar 6.12564 12.8183 6.05146
163 1 Ar 6.14741 12.6496 9.23342
164 1 Ar 6.37658 12.7318 12.4472
165 1 Ar 5.48405 12.5122 15.9567
166 1 Ar 6.1825 12.1141 18.8949
167 1 Ar 6.10257 12.3238 22.2985
168 1 Ar 6.28608 15.5514 0.0222003
169 1 Ar 6.01387 15.6859 3.21958
170 1 Ar 6.66694 16.2271 6.60254
171 1 Ar 4.77031 15.471 9.52274
172 1 Ar 6.12981 15.8188 12.4624
173 1 Ar 5.88082 15.8358 15.7396
174 1 Ar 6.09293 15.2607 19.8633
175 1 Ar 5.63737 15.7295 24.3335
176 1 Ar 6.08277 18.9829 27.9028
177 1 Ar 5.47909 18.8953 3.20194
178 1 Ar 5.31927 19.1776 6.27881
179 1 Ar 6.43088 18.5139 9.31729
180 1 Ar 6.35841 18.961 12.4802
181 1 Ar 5.77454 19.4426 15.6955
182 1 Ar 5.90922 18.257 18.5547
183 1 Ar 6.55794 19.1284 22.108
184 1 Ar 6.52209 21.9729 26.5722
185 1 Ar 5.8054 22.5628 2.06014
186 1 Ar 6.27086 23.3875 5.89664
187 1 Ar 5.62262 21.7776 8.67825
188 1 Ar 5.97568 22.2445 12.1816
189 1 Ar 5.64959 22.8939 15.3496
190 1 Ar 5.51686 21.9279 19.1171
191 1 Ar 6.85394 22.4249 22.1858
192 1 Ar 9.21733 27.1727 26.5117
193 1 Ar 9.45012 27.3008 2.56207
194 1 Ar 9.28709 26.862 6.02607
195 1 Ar 9.42241 27.8033 9.27218
196 1 Ar 9.78798 27.0477 12.3486
197 1 Ar 9.09905 27.6655 15.759
198 1 Ar 9.21753 26.5732 19.1437
199 1 Ar 9.17233 26.0476 23.0608
200 1 Ar 9.69692 2.77791 26.9756
201 1 Ar 9.38631 2.52355 2.60977
202 1 Ar 9.22422 2.36086 5.90017
203 1 Ar 9.33994 3.00254 9.07123
204 1 Ar 9.34365 2.94321 12.371
205 1 Ar 9.32498 2.92406 15.555
206 1 Ar 9.20604 2.50811 18.8833
207 1 Ar 9.37225 2.1707 22.5269
208 1 Ar 9.13608 6.13244 27.5426
209 1 Ar 9.86868 5.68695 2.81486
210 1 Ar 9.31249 5.93483 6.25701
211 1 Ar 8.97553 6.07574 9.48744
212 1 Ar 9.77113 6.55784 12.486
213 1 Ar 9.08724 6.1062 15.6264
214 1 Ar 9.25805 6.12125 18.9121
215 1 Ar 9.55654 5.75776 22.7606
216 1 Ar 9.46127 9.31293 27.7871
217 1 Ar 9.35664 8.92551 2.95573
218 1 Ar 9.36316 9.36331 6.11197
219 1 Ar 9.57807 9.33314 9.26702
220 1 Ar 8.78636 9.44942 12.2158
221 1 Ar 9.56607 9.24673 15.2859
222 1 Ar 8.88921 9.41511 18.4499
223 1 Ar 9.25126 8.93889 21.9004
224 1 Ar 9.81418 12.7481 27.8604
225 1 Ar 9.41275 12.4325 3.04126
226 1 Ar 9.40303 12.6813 6.23589
227 1 Ar 9.55594 12.7134 9.6791
228 1 Ar 9.50189 12.5344 12.7
229 1 Ar 9.21349 12.6838 15.8124
230 1 Ar 9.97502 12.6054 18.9793
231 1 Ar 9.326 12.3257 22.2574
232 1 Ar 9.44041 15.89 27.1221
233 1 Ar 9.0869 15.6165 3.17801
234 1 Ar 9.96595 15.8465 6.43676
235 1 Ar 8.63886 15.9361 9.15191
236 1 Ar 9.33067 15.5457 12.0739
237 1 Ar 9.04416 16.0284 15.2209
238 1 Ar 9.44474 16.0781 18.5646
239 1 Ar 8.81462 15.6532 21.9998
240 1 Ar 9.34168 19.3609 27.1583
241 1 Ar 9.18449 18.7074 2.57414
242 1 Ar 8.78579 19.091 6.07079
243 1 Ar 9.46019 19.1687 9.55652
244 1 Ar 9.57358 18.6748 12.8893
245 1 Ar 9.55232 19.5131 16.1688
246 1 Ar 9.04938 18.996 19.8682
247 1 Ar 9.99393 18.9243 23.2401
248 1 Ar 9.42169 23.1753 27.2698
249 1 Ar 9.30619 22.564 2.99461
250 1 Ar 9.76026 23.5344 6.17768
251 1 Ar 9.15669 22.6762 8.97225
252 1 Ar 9.34629 22.3548 12.4345
253 1 Ar 8.77118 23.561 15.713
254 1 Ar 8.87767 22.4503 19.446
255 1 Ar 9.91572 22.3005 23.0529
256 1 Ar 12.4824 26.3133 27.1234
257 1 Ar 12.9653 27.3124 2.7773
258 1 Ar 12.3565 27.7268 6.13264
259 1 Ar 12.7652 26.4558 9.13515
260 1 Ar 13.0458 27.6424 12.3393
261 1 Ar 12.0237 26.6343 15.9373
262 1 Ar 12.4048 27.4656 19.3233
263 1 Ar 11.7513 0.372468 23.8678
264 1 Ar 13.0792 2.68441 26.7735
265 1 Ar 12.8107 2.55613 2.16462
266 1 Ar 12.6574 3.05472 5.90912
267 1 Ar 12.5464 2.63137 9.02197
268 1 Ar 12.595 2.94669 12.1711
269 1 Ar 12.5392 2.08082 15.7549
270 1 Ar 12.4606 2.93339 19.2215
271 1 Ar 11.8362 4.14597 24.3991
272 1 Ar 12.4876 5.81398 27.4954
273 1 Ar 13.0332 5.69026 2.91447
274 1 Ar 12.492 6.31439 6.33008
275 1 Ar 12.3272 6.15637 9.62144
276 1 Ar 12.859 6.33439 12.7191
277 1 Ar 12.2607 5.30189 15.7191
278 1 Ar 12.4405 6.30287 18.6643
279 1 Ar 12.9234 5.64797 21.7195
280 1 Ar 11.9258 8.73983 25.6821
281 1 Ar 12.5574 8.84192 2.04241
282 1 Ar 12.535 9.19824 5.47885
283 1 Ar 12.6211 9.54598 8.66733
284 1 Ar 12.2297 9.60714 12.0764
285 1 Ar 12.6868 8.73033 15.4205
286 1 Ar 12.2949 9.5435 18.3299
287 1 Ar 12.7738 9.20674 21.6871
288 1 Ar 12.5763 12.0122 25.947
289 1 Ar 12.4652 12.2543 2.19566
290 1 Ar 12.4221 12.3985 6.17416
291 1 Ar 12.7932 12.6882 9.50771
292 1 Ar 12.6336 12.8448 12.6622
293 1 Ar 12.565 12.2465 16.0248
294 1 Ar 13.194 12.4999 19.4812
295 1 Ar 12.5903 12.6169 22.8017
296 1 Ar 12.6808 15.9076 26.6491
297 1 Ar 12.2614 16.1268 2.11501
298 1 Ar 13.0575 15.4692 5.47655
299 1 Ar 11.8603 15.6693 8.93932
300 1 Ar 12.6378 16.3453 12.1394
301 1 Ar 12.1098 15.5561 15.8035
302 1 Ar 12.4816 15.6139 19.7404
303 1 Ar 12.0055 15.8579 23.4491
304 1 Ar 12.5607 18.8134 27.8159
305 1 Ar 12.1035 19.9679 3.23943
306 1 Ar 12.199 18.4515 6.05241
307 1 Ar 12.9271 18.6329 9.33338
308 1 Ar 12.6927 19.9866 12.2433
309 1 Ar 12.4096 18.5655 14.9808
310 1 Ar 12.1491 19.2442 18.6041
311 1 Ar 13.1005 18.5457 21.8665
312 1 Ar 12.6411 22.1004 27.7299
313 1 Ar 12.6156 23.7315 3.12849
314 1 Ar 12.6275 21.9212 6.01423
315 1 Ar 12.407 22.0647 9.33186
316 1 Ar 12.4932 23.1198 12.4707
317 1 Ar 11.7018 22.2256 15.9955
318 1 Ar 12.3703 22.6725 19.4385
319 1 Ar 13.1001 22.1898 23.1993
320 1 Ar 15.6804 26.972 27.5215
321 1 Ar 15.9061 0.0875249 3.12071
322 1 Ar 15.7039 27.262 6.39604
323 1 Ar 15.9443 27.4145 9.73581
324 1 Ar 16.2054 26.7374 12.8032
325 1 Ar 15.1634 26.9955 15.9516
326 1 Ar 15.7903 27.5244 19.2157
327 1 Ar 14.2863 26.2921 22.5915
328 1 Ar 16.1423 2.41477 27.7719
329 1 Ar 15.9434 3.29253 3.29723
330 1 Ar 15.9122 2.56999 6.35511
331 1 Ar 15.65 2.92068 9.53333
332 1 Ar 15.5587 3.04591 12.6919
333 1 Ar 15.682 2.52216 15.7218
334 1 Ar 15.6782 2.85467 19.2307
335 1 Ar 14.8068 2.11465 22.8997
336 1 Ar 15.7493 5.85294 26.8518
337 1 Ar 16.4423 6.17888 2.34226
338 1 Ar 15.9039 5.76809 5.77891
339 1 Ar 15.6964 5.96131 8.97968
340 1 Ar 16.0178 6.20172 12.0548
341 1 Ar 15.4632 5.96626 15.2716
342 1 Ar 15.9568 6.19492 19.6164
343 1 Ar 15.6759 5.81503 23.2523
344 1 Ar 14.7864 8.80792 27.7665
345 1 Ar 15.5614 9.1574 3.15509
346 1 Ar 15.8172 9.06841 6.21968
347 1 Ar 15.5058 9.31873 9.34616
348 1 Ar 15.8205 9.3415 12.4791
349 1 Ar 16.0898 9.22588 15.5829
350 1 Ar 15.2928 9.23479 18.6985
351 1 Ar 16.253 9.2726 22.3693
352 1 Ar 15.7692 12.5899 26.5809
353 1 Ar 15.5693 12.1026 2.05745
354 1 Ar 15.7614 12.2891 5.55816
355 1 Ar 15.934 12.5618 9.26809
356 1 Ar 15.7996 12.489 12.8509
357 1 Ar 15.9093 12.4213 16.1318
358 1 Ar 16.5887 12.2825 19.8964
359 1 Ar 15.988 12.7007 23.3037
360 1 Ar 15.6445 15.904 27.7163
361 1 Ar 15.573 15.3765 2.94527
362 1 Ar 16.318 15.4131 6.30705
363 1 Ar 15.3493 16.0913 9.26597
364 1 Ar 16.0954 15.5885 12.2288
365 1 Ar 15.2796 15.6443 15.4267
366 1 Ar 15.5672 15.2244 18.567
367 1 Ar 15.6529 16.0226 21.98
368 1 Ar 15.8351 19.4335 27.2335
369 1 Ar 15.7994 18.8791 2.65793
370 1 Ar 15.5029 18.6126 6.05289
371 1 Ar 16.0502 19.5641 9.67714
372 1 Ar 16.1831 18.8303 12.9463
373 1 Ar 15.6785 19.2843 16.286
374 1 Ar 16.0108 18.5897 19.5412
375 1 Ar 15.9609 19.2638 23.3968
376 1 Ar 16.1945 22.7685 26.8005
377 1 Ar 15.6104 22.1631 2.16542
378 1 Ar 16.1522 22.8635 5.71645
379 1 Ar 15.8459 22.7879 8.97826
380 1 Ar 16.1171 22.1661 12.9546
381 1 Ar 15.3495 22.5797 16.1785
382 1 Ar 16.1719 21.8497 19.9835
383 1 Ar 16.1334 23.2278 23.2518
384 1 Ar 18.8117 27.063 26.6427
385 1 Ar 19.4091 27.0029 2.13639
386 1 Ar 18.8876 27.4836 5.47218
387 1 Ar 19.121 27.1883 8.90373
388 1 Ar 19.1511 27.6875 12.1999
389 1 Ar 18.3269 27.4201 15.4863
390 1 Ar 19.2119 0.00105214 18.9881
391 1 Ar 18.3946 26.5564 22.3065
392 1 Ar 19.2578 2.5171 26.9735
393 1 Ar 18.9458 2.40567 2.54619
394 1 Ar 19.4876 2.89957 5.81298
395 1 Ar 19.2212 2.41258 9.05393
396 1 Ar 18.8437 3.28499 12.0671
397 1 Ar 19.1537 2.94405 15.1314
398 1 Ar 18.9647 3.13947 18.4484
399 1 Ar 18.601 2.04243 22.0282
400 1 Ar 19.0577 5.84317 26.4673
401 1 Ar 19.531 6.13919 2.19883
402 1 Ar 18.9997 6.4599 5.15071
403 1 Ar 19.3843 5.59578 9.11751
404 1 Ar 19.1476 6.2704 12.3715
405 1 Ar 18.4826 6.13275 15.6508
406 1 Ar 19.3857 6.35148 18.8863
407 1 Ar 18.9073 5.8471 22.3346
408 1 Ar 17.5616 9.4872 26.066
409 1 Ar 19.2279 9.51845 3.03395
410 1 Ar 18.9048 9.53907 6.74913
411 1 Ar 18.6475 9.04031 9.88683
412 1 Ar 19.1068 9.466 12.9209
413 1 Ar 19.8445 9.067 16.1633
414 1 Ar 18.512 9.50565 19.0355
415 1 Ar 19.3845 9.04965 23.1287
416 1 Ar 19.3764 12.4756 27.2707
417 1 Ar 18.8304 12.7083 2.65574
418 1 Ar 18.9371 12.4883 5.95076
419 1 Ar 19.068 12.6943 8.99383
420 1 Ar 18.9537 12.4187 12.293
421 1 Ar 18.9088 12.0502 15.355
422 1 Ar 19.5782 12.4398 18.5807
423 1 Ar 19.432 12.6413 22.4092
424 1 Ar 19.0286 15.6512 27.0821
425 1 Ar 18.9936 15.9813 3.19817
426 1 Ar 19.4998 15.6194 6.35482
427 1 Ar 18.7337 16.0911 9.31934
428 1 Ar 19.664 15.3867 12.4179
429 1 Ar 18.4993 15.4063 15.7205
430 1 Ar 19.3203 15.7951 18.8041
431 1 Ar 18.9723 15.6873 22.8176
432 1 Ar 19.1687 19.2336 26.7472
433 1 Ar 19.3547 19.0196 2.37764
434 1 Ar 19.2654 18.9356 6.05775
435 1 Ar 19.3916 19.9405 9.24277
436 1 Ar 19.682 18.7574 12.4643
437 1 Ar 19.2622 18.6753 15.9308
438 1 Ar 19.1521 20.0716 18.8287
439 1 Ar 19.5893 19.2702 22.8518
440 1 Ar 19.2862 22.7509 27.8271
441 1 Ar 19.7985 23.1884 3.31087
442 1 Ar 19.574 22.3766 6.3783
443 1 Ar 19.6131 23.7477 9.7376
444 1 Ar 20.4049 22.097 12.8195
445 1 Ar 18.9003 22.3792 15.8809
446 1 Ar 19.0389 23.8588 19.0117
447 1 Ar 19.6225 22.927 22.098
448 1 Ar 22.9096 27.1252 27.5135
449 1 Ar 22.6316 26.0098 2.97271
450 1 Ar 24.0171 27.8306 6.56285
451 1 Ar 22.5976 27.9494 9.60898
452 1 Ar 22.7638 26.1392 12.2284
453 1 Ar 21.7943 27.6012 15.3924
454 1 Ar 22.7933 27.2587 19.195
455 1 Ar 22.7551 26.8992 23.6403
456 1 Ar 22.5288 2.63367 27.0412
457 1 Ar 22.6572 1.86653 2.86258
458 1 Ar 22.7031 2.8421 6.00316
459 1 Ar 22.3299 3.28447 9.44632
460 1 Ar 23.0062 1.83962 12.9912
461 1 Ar 22.4943 3.1674 16.5304
462 1 Ar 22.4752 2.99666 20.2783
463 1 Ar 21.0649 3.80651 24.2215
464 1 Ar 22.5495 6.36583 27.1618
465 1 Ar 23.6216 5.22517 2.61197
466 1 Ar 22.2933 6.1221 5.51506
467 1 Ar 23.1092 6.53033 8.62793
468 1 Ar 22.4711 6.02468 12.3156