ITEM: TIMESTEP
-1
ITEM: NUMBER OF ATOMS
500
ITEM: BOX BOUNDS pp pp pp
0 40.3115
0 40.3115
0 40.3115
ITEM: ATOMS id type element xu yu zu
0 1 Ar 0 0 0
1 1 Ar 0 0 4.47905
2 1 Ar 0 0 8.9581
3 1 Ar 0 0 13.4372
4 1 Ar 0 0 17.9162
5 1 Ar 0 0 22.3953
6 1 Ar 0 0 26.8743
7 1 Ar 0 0 31.3534
8 1 Ar 0 4.47905 0
9 1 Ar 0 4.47905 4.47905
10 1 Ar 0 4.47905 8.9581
11 1 Ar 0 4.47905 13.4372
12 1 Ar 0 4.47905 17.9162
13 1 Ar 0 4.47905 22.3953
14 1 Ar 0 4.47905 26.8743
15 1 Ar 0 4.47905 31.3534
16 1 Ar 0 8.9581 0
17 1 Ar 0 8.9581 4.47905
18 1 Ar 0 8.9581 8.9581
19 1 Ar 0 8.9581 13.4372
20 1 Ar 0 8.9581 17.9162
21 1 Ar 0 8.9581 22.3953
22 1 Ar 0 8.9581 26.8743
23 1 Ar 0 8.9581 31.3534
24 1 Ar 0 13.4372 0
25 1 Ar 0 13.4372 4.47905
26 1 Ar 0 13.4372 8.9581
27 1 Ar 0 13.4372 13.4372
28 1 Ar 0 13.4372 17.9162
29 1 Ar 0 13.4372 22.3953
30 1 Ar 0 13.4372 26.8743
31 1 Ar 0 13.4372 31.3534
32 1 Ar 0 17.9162 0
33 1 Ar 0 17.9162 4.47905
34 1 Ar 0 17.9162 8.9581
35 1 Ar 0 17.9162 13.4372
36 1 Ar 0 17.9162 17.9162
37 1 Ar 0 17.9162 22.3953
38 1 Ar 0 17.9162 26.8743
39 1 Ar 0 17.9162 31.3534
40 1 Ar 0 22.3953 0
41 1 Ar 0 22.3953 4.47905
42 1 Ar 0 22.3953 8.9581
43 1 Ar 0 22.3953 13.4372
44 1 Ar 0 22.3953 17.9162
45 1 Ar 0 22.3953 22.3953
46 1 Ar 0 22.3953 26.8743
47 1 Ar 0 22.3953 31.3534
48 1 Ar 0 26.8743 0
49 1 Ar 0 26.8743 4.47905
50 1 Ar 0 26.8743 8.9581
51 1 Ar 0 26.8743 13.4372
52 1 Ar 0 26.8743 17.9162
53 1 Ar 0 26.8743 22.3953
54 1 Ar 0 26.8743 26.8743
55 1 Ar 0 26.8743 31.3534
56 1 Ar 0 31.3534 0
57 1 Ar 0 31.3534 4.47905
58 1 Ar 0 31.3534 8.9581
59 1 Ar 0 31.3534 13.4372
60 1 Ar 0 31.3534 17.9162
61 1 Ar 0 31.3534 22.3953
62 1 Ar 0 31.3534 26.8743
63 1 Ar 0 31.3534 31.3534
64 1 Ar 4.47905 0 0
65 1 Ar 4.47905 0 4.47905
66 1 Ar 4.47905 0 8.9581
67 1 Ar 4.47905 0 13.4372
68 1 Ar 4.47905 0 17.9162
69 1 Ar 4.47905 0 22.3953
70 1 Ar 4.47905 0 26.8743
71 1 Ar 4.47905 0 31.3534
72 1 Ar 4.47905 4.47905 0
73 1 Ar 4.47905 4.47905 4.47905
74 1 Ar 4.47905 4.47905 8.9581
75 1 Ar 4.47905 4.47905 13.4372
76 1 Ar 4.47905 4.47905 17.9162
77 1 Ar 4.47905 4.47905 22.3953
78 1 Ar 4.47905 4.47905 26.8743
79 1 Ar 4.47905 4.47905 31.3534
80 1 Ar 4.47905 8.9581 0
81 1 Ar 4.47905 8.9581 4.47905
82 1 Ar 4.47905 8.9581 8.9581
83 1 Ar 4.47905 8.9581 13.4372
84 1 Ar 4.47905 8.9581 17.9162
85 1 Ar 4.47905 8.9581 22.3953
86 1 Ar 4.47905 8.9581 26.8743
87 1 Ar 4.47905 8.9581 31.3534
88 1 Ar 4.47905 13.4372 0
89 1 Ar 4.47905 13.4372 4.47905
90 1 Ar 4.47905 13.4372 8.9581
91 1 Ar 4.47905 13.4372 13.4372
92 1 Ar 4.47905 13.4372 17.9162
93 1 Ar 4.47905 13.4372 22.3953
94 1 Ar 4.47905 13.4372 26.8743
95 1 Ar 4.47905 13.4372 31.3534
96 1 Ar 4.47905 17.9162 0
97 1 Ar 4.47905 17.9162 4.47905
98 1 Ar 4.47905 17.9162 8.9581
99 1 Ar 4.47905 17.9162 13.4372
100 1 Ar 4.47905 17.9162 17.9162
101 1 Ar 4.47905 17.9162 22.3953
102 1 Ar 4.47905 17.9162 26.8743
103 1 Ar 4.47905 17.9162 31.3534
104 1 Ar 4.47905 22.3953 0
105 1 Ar 4.47905 22.3953 4.47905
106 1 Ar 4.47905 22.3953 8.9581
107 1 Ar 4.47905 22.3953 13.4372
108 1 Ar 4.47905 22.3953 17.9162
109 1 Ar 4.47905 22.3953 22.3953
110 1 Ar 4.47905 22.3953 26.8743
111 1 Ar 4.47905 22.3953 31.3534
112 1 Ar 4.47905 26.8743 0
113 1 Ar 4.47905 26.8743 4.47905
114 1 Ar 4.47905 26.8743 8.9581
115 1 Ar 4.47905 26.8743 13.4372
116 1 Ar 4.47905 26.8743 17.9162
117 1 Ar 4.47905 26.8743 22.3953
118 1 Ar 4.47905 26.8743 26.8743
119 1 Ar 4.47905 26.8743 31.3534
120 1 Ar 4.47905 31.3534 0
121 1 Ar 4.47905 31.3534 4.47905
122 1 Ar 4.47905 31.3534 8.9581
123 1 Ar 4.47905 31.3534 13.4372
124 1 Ar 4.47905 31.3534 17.9162
125 1 Ar 4.47905 31.3534 22.3953
126 1 Ar 4.47905 31.3534 26.8743
127 1 Ar 4.47905 31.3534 31.3534
128 1 Ar 8.9581 0 0
129 1 Ar 8.9581 0 4.47905
130 1 Ar 8.9581 0 8.9581
131 1 Ar 8.9581 0 13.4372
132 1 Ar 8.9581 0 17.9162
133 1 Ar 8.9581 0 22.3953
134 1 Ar 8.9581 0 26.8743
135 1 Ar 8.9581 0 31.3534
136 1 Ar 8.9581 4.47905 0
137 1 Ar 8.9581 4.47905 4.47905
138 1 Ar 8.9581 4.47905 8.9581
139 1 Ar 8.9581 4.47905 13.4372
140 1 Ar 8.9581 4.47905 17.9162
141 1 Ar 8.9581 4.47905 22.3953
142 1 Ar 8.9581 4.47905 26.8743
143 1 Ar 8.9581 4.47905 31.3534
144 1 Ar 8.9581 8.9581 0
145 1 Ar 8.9581 8.9581 4.47905
146 1 Ar 8.9581 8.9581 8.9581
147 1 Ar 8.9581 8.9581 13.4372
148 1 Ar 8.9581 8.9581 17.9162
149 1 Ar 8.9581 8.9581 22.3953
150 1 Ar 8.9581 8.9581 26.8743
151 1 Ar 8.9581 8.9581 31.3534
152 1 Ar 8.9581 13.4372 0
153 1 Ar 8.9581 13.4372 4.47905
154 1 Ar 8.9581 13.4372 8.9581
155 1 Ar 8.9581 13.4372 13.4372
156 1 Ar 8.9581 13.4372 17.9162
157 1 Ar 8.9581 13.4372 22.3953
158 1 Ar 8.9581 13.4372 26.8743
159 1 Ar 8.9581 13.4372 31.3534
160 1 Ar 8.9581 17.9162 0
161 1 Ar 8.9581 17.9162 4.47905
162 1 Ar 8.9581 17.9162 8.9581
163 1 Ar 8.9581 17.9162 13.4372
164 1 Ar 8.9581 17.9162 17.9162
165 1 Ar 8.9581 17.9162 22.3953
166 1 Ar 8.9581 17.9162 26.8743
167 1 Ar 8.9581 17.9162 31.3534
168 1 Ar 8.9581 22.3953 0
169 1 Ar 8.9581 22.3953 4.47905
170 1 Ar 8.9581 22.3953 8.9581
171 1 Ar 8.9581 22.3953 13.4372
172 1 Ar 8.9581 22.3953 17.9162
173 1 Ar 8.9581 22.3953 22.3953
174 1 Ar 8.9581 22.3953 26.8743
175 1 Ar 8.9581 22.3953 31.3534
176 1 Ar 8.9581 26.8743 0
177 1 Ar 8.9581 26.8743 4.47905
178 1 Ar 8.9581 26.8743 8.9581
179 1 Ar 8.9581 26.8743 13.4372
180 1 Ar 8.9581 26.8743 17.9162
181 1 Ar 8.9581 26.8743 22.3953
182 1 Ar 8.9581 26.8743 26.8743
183 1 Ar 8.9581 26.8743 31.3534
184 1 Ar 8.9581 31.3534 0
185 1 Ar 8.9581 31.3534 4.47905
186 1 Ar 8.9581 31.3534 8.9581
187 1 Ar 8.9581 31.3534 13.4372
188 1 Ar 8.9581 31.3534 17.9162
189 1 Ar 8.9581 31.3534 22.3953
190 1 Ar 8.9581 31.3534 26.8743
191 1 Ar 8.9581 31.3534 31.3534
192 1 Ar 13.4372 0 0
193 1 Ar 13.4372 0 4.47905
194 1 Ar 13.4372 0 8.9581
195 1 Ar 13.4372 0 13.4372
196 1 Ar 13.4372 0 17.9162
197 1 Ar 13.4372 0 22.3953
198 1 Ar 13.4372 0 26.8743
199 1 Ar 13.4372 0 31.3534
200 1 Ar 13.4372 4.47905 0
201 1 Ar 13.4372 4.47905 4.47905
202 1 Ar 13.4372 4.47905 8.9581
203 1 Ar 13.4372 4.47905 13.4372
204 1 Ar 13.4372 4.47905 17.9162
205 1 Ar 13.4372 4.47905 22.3953
206 1 Ar 13.4372 4.47905 26.8743
207 1 Ar 13.4372 4.47905 31.3534
208 1 Ar 13.4372 8.9581 0
209 1 Ar 13.4372 8.9581 4.47905
210 1 Ar 13.4372 8.9581 8.9581
211 1 Ar 13.4372 8.9581 13.4372
212 1 Ar 13.4372 8.9581 17.9162
213 1 Ar 13.4372 8.9581 22.3953
214 1 Ar 13.4372 8.9581 26.8743
215 1 Ar 13.4372 8.9581 31.3534
216 1 Ar 13.4372 13.4372 0
217 1 Ar 13.4372 13.4372 4.47905
218 1 Ar 13.4372 13.4372 8.9581
219 1 Ar 13.4372 13.4372 13.4372
220 1 Ar 13.4372 13.4372 17.9162
221 1 Ar 13.4372 13.4372 22.3953
222 1 Ar 13.4372 13.4372 26.8743
223 1 Ar 13.4372 13.4372 31.3534
224 1 Ar 13.4372 17.9162 0
225 1 Ar 13.4372 17.9162 4.47905
226 1 Ar 13.4372 17.9162 8.9581
227 1 Ar 13.4372 17.9162 13.4372
228 1 Ar 13.4372 17.9162 17.9162
229 1 Ar 13.4372 17.9162 22.3953
230 1 Ar 13.4372 17.9162 26.8743
231 1 Ar 13.4372 17.9162 31.3534
232 1 Ar 13.4372 22.3953 0
233 1 Ar 13.4372 22.3953 4.47905
234 1 Ar 13.4372 22.3953 8.9581
235 1 Ar 13.4372 22.3953 13.4372
236 1 Ar 13.4372 22.3953 17.9162
237 1 Ar 13.4372 22.3953 22.3953
238 1 Ar 13.4372 22.3953 26.8743
239 1 Ar 13.4372 22.3953 31.3534
240 1 Ar 13.4372 26.8743 0
241 1 Ar 13.4372 26.8743 4.47905
242 1 Ar 13.4372 26.8743 8.9581
243 1 Ar 13.4372 26.8743 13.4372
244 1 Ar 13.4372 26.8743 17.9162
245 1 Ar 13.4372 26.8743 22.3953
246 1 Ar 13.4372 26.8743 26.8743
247 1 Ar 13.4372 26.8743 31.3534
248 1 Ar 13.4372 31.3534 0
249 1 Ar 13.4372 31.3534 4.47905
250 1 Ar 13.4372 31.3534 8.9581
251 1 Ar 13.4372 31.3534 13.4372
252 1 Ar 13.4372 31.3534 17.9162
253 1 Ar 13.4372 31.3534 22.3953
254 1 Ar 13.4372 31.3534 26.8743
255 1 Ar 13.4372 31.3534 31.3534
256 1 Ar 17.9162 0 0
257 1 Ar 17.9162 0 4.47905
258 1 Ar 17.9162 0 8.9581
259 1 Ar 17.9162 0 13.4372
260 1 Ar 17.9162 0 17.9162
261 1 Ar 17.9162 0 22.3953
262 1 Ar 17.9162 0 26.8743
263 1 Ar 17.9162 0 31.3534
264 1 Ar 17.9162 4.47905 0
265 1 Ar 17.9162 4.47905 4.47905
266 1 Ar 17.9162 4.47905 8.9581
267 1 Ar 17.9162 4.47905 13.4372
268 1 Ar 17.9162 4.47905 17.9162
269 1 Ar 17.9162 4.47905 22.3953
270 1 Ar 17.9162 4.47905 26.8743
271 1 Ar 17.9162 4.47905 31.3534
272 1 Ar 17.9162 8.9581 0
273 1 Ar 17.9162 8.9581 4.47905
274 1 Ar 17.9162 8.9581 8.9581
275 1 Ar 17.9162 8.9581 13.4372
276 1 Ar 17.9162 8.9581 17.9162
277 1 Ar 17.9162 8.9581 22.3953
278 1 Ar 17.9162 8.9581 26.8743
279 1 Ar 17.9162 8.9581 31.3534
280 1 Ar 17.9162 13.4372 0
281 1 Ar 17.9162 13.4372 4.47905
282 1 Ar 17.9162 13.4372 8.9581
283 1 Ar 17.9162 13.4372 13.4372
284 1 Ar 17.9162 13.4372 17.9162
285 1 Ar 17.9162 13.4372 22.3953
286 1 Ar 17.9162 13.4372 26.8743
287 1 Ar 17.9162 13.4372 31.3534
288 1 Ar 17.9162 17.9162 0
289 1 Ar 17.9162 17.9162 4.47905
290 1 Ar 17.9162 17.9162 8.9581
291 1 Ar 17.9162 17.9162 13.4372
292 1 Ar 17.9162 17.9162 17.9162
293 1 Ar 17.9162 17.9162 22.3953
294 1 Ar 17.9162 17.9162 26.8743
295 1 Ar 17.9162 17.9162 31.3534
296 1 Ar 17.9162 22.3953 0
297 1 Ar 17.9162 22.3953 4.47905
298 1 Ar 17.9162 22.3953 8.9581
299 1 Ar 17.9162 22.3953 13.4372
300 1 Ar 17.9162 22.3953 17.9162
301 1 Ar 17.9162 22.3953 22.3953
302 1 Ar 17.9162 22.3953 26.8743
303 1 Ar 17.9162 22.3953 31.3534
304 1 Ar 17.9162 26.8743 0
305 1 Ar 17.9162 26.8743 4.47905
306 1 Ar 17.9162 26.8743 8.9581
307 1 Ar 17.9162 26.8743 13.4372
308 1 Ar 17.9162 26.8743 17.9162
309 1 Ar 17.9162 26.8743 22.3953
310 1 Ar 17.9162 26.8743 26.8743
311 1 Ar 17.9162 26.8743 31.3534
312 1 Ar 17.9162 31.3534 0
313 1 Ar 17.9162 31.3534 4.47905
314 1 Ar 17.9162 31.3534 8.9581
315 1 Ar 17.9162 31.3534 13.4372
316 1 Ar 17.9162 31.3534 17.9162
317 1 Ar 17.9162 31.3534 22.3953
318 1 Ar 17.9162 31.3534 26.8743
319 1 Ar 17.9162 31.3534 31.3534
320 1 Ar 22.3953 0 0
321 1 Ar 22.3953 0 4.47905
322 1 Ar 22.3953 0 8.9581
323 1 Ar 22.3953 0 13.4372
324 1 Ar 22.3953 0 17.9162
325 1 Ar 22.3953 0 22.3953
326 1 Ar 22.3953 0 26.8743
327 1 Ar 22.3953 0 31.3534
328 1 Ar 22.3953 4.47905 0
329 1 Ar 22.3953 4.47905 4.47905
330 1 Ar 22.3953 4.47905 8.9581
331 1 Ar 22.3953 4.47905 13.4372
332 1 Ar 22.3953 4.47905 17.9162
333 1 Ar 22.3953 4.47905 22.3953
334 1 Ar 22.3953 4.47905 26.8743
335 1 Ar 22.3953 4.47905 31.3534
336 1 Ar 22.3953 8.9581 0
337 1 Ar 22.3953 8.9581 4.47905
338 1 Ar 22.3953 8.9581 8.9581
339 1 Ar 22.3953 8.9581 13.4372
340 1 Ar 22.3953 8.9581 17.9162
341 1 Ar 22.3953 8.9581 22.3953
342 1 Ar 22.3953 8.9581 26.8743
343 1 Ar 22.3953 8.9581 31.3534
344 1 Ar 22.3953 13.4372 0
345 1 Ar 22.3953 13.4372 4.47905
346 1 Ar 22.3953 13.4372 8.9581
347 1 Ar 22.3953 13.4372 13.4372
348 1 Ar 22.3953 13.4372 17.9162
349 1 Ar 22.3953 13.4372 22.3953
350 1 Ar 22.3953 13.4372 26.8743
351 1 Ar 22.3953 13.4372 31.3534
352 1 Ar 22.3953 17.9162 0
353 1 Ar 22.3953 17.9162 4.47905
354 1 Ar 22.3953 17.9162 8.9581
355 1 Ar 22.3953 17.9162 13.4372
356 1 Ar 22.3953 17.9162 17.9162
357 1 Ar 22.3953 17.9162 22.3953
358 1 Ar 22.3953 17.9162 26.8743
359 1 Ar 22.3953 17.9162 31.3534
360 1 Ar 22.3953 22.3953 0
361 1 Ar 22.3953 22.3953 4.47905
362 1 Ar 22.3953 22.3953 8.9581
363 1 Ar 22.3953 22.3953 13.4372
364 1 Ar 22.3953 22.3953 17.9162
365 1 Ar 22.3953 22.3953 22.3953
366 1 Ar 22.3953 22.3953 26.8743
367 1 Ar 22.3953 22.3953 31.3534
368 1 Ar 22.3953 26.8743 0
369 1 Ar 22.3953 26.8743 4.47905
370 1 Ar 22.3953 26.8743 8.9581
371 1 Ar 22.3953 26.8743 13.4372
372 1 Ar 22.3953 26.8743 17.9162
373 1 Ar 22.3953 26.8743 22.3953
374 1 Ar 22.3953 26.8743 26.8743
375 1 Ar 22.3953 26.8743 31.3534
376 1 Ar 22.3953 31.3534 0
377 1 Ar 22.3953 31.3534 4.47905
378 1 Ar 22.3953 31.3534 8.9581
379 1 Ar 22.3953 31.3534 13.4372
380 1 Ar 22.3953 31.3534 17.9162
381 1 Ar 22.3953 31.3534 22.3953
382 1 Ar 22.3953 31.3534 26.8743
383 1 Ar 22.3953 31.3534 31.3534
384 1 Ar 26.8743 0 0
385 1 Ar 26.8743 0 4.47905
386 1 Ar 26.8743 0 8.9581
387 1 Ar 26.8743 0 13.4372
388 1 Ar 26.8743 0 17.9162
389 1 Ar 26.8743 0 22.3953
390 1 Ar 26.8743 0 26.8743
391 1 Ar 26.8743 0 31.3534
392 1 Ar 26.8743 4.47905 0
393 1 Ar 26.8743 4.47905 4.47905
394 1 Ar 26.8743 4.47905 8.9581
395 1 Ar 26.8743 4.47905 13.4372
396 1 Ar 26.8743 4.47905 17.9162
397 1 Ar 26.8743 4.47905 22.3953
398 1 Ar 26.8743 4.47905 26.8743
399 1 Ar 26.8743 4.47905 31.3534
400 1 Ar 26.8743 8.9581 0
401 1 Ar 26.8743 8.9581 4.47905
402 1 Ar 26.8743 8.9581 8.9581
403 1 Ar 26.8743 8.9581 13.4372
404 1 Ar 26.8743 8.9581 17.9162
405 1 Ar 26.8743 8.9581 22.3953
406 1 Ar 26.8743 8.9581 26.8743
407 1 Ar 26.8743 8.9581 31.3534
408 1 Ar 26.8743 13.4372 0
409 1 Ar 26.8743 13.4372 4.47905
410 1 Ar 26.8743 13.4372 8.9581
411 1 Ar 26.8743 13.4372 13.4372
412 1 Ar 26.8743 13.4372 17.9162
413 1 Ar 26.8743 13.4372 22.3953
414 1 Ar 26.8743 13.4372 26.8743
415 1 Ar 26.8743 13.4372 31.3534
416 1 Ar 26.8743 17.9162 0
417 1 Ar 26.8743 17.9162 4.47905
418 1 Ar 26.8743 17.9162 8.9581
419 1 Ar 26.8743 17.9162 13.4372
420 1 Ar 26.8743 17.9162 17.9162
421 1 Ar 26.8743 17.9162 22.3953
422 1 Ar 26.8743 17.9162 26.8743
423 1 Ar 26.8743 17.9162 31.3534
424 1 Ar 26.8743 22.3953 0
425 1 Ar 26.8743 22.3953 4.47905
426 1 Ar 26.8743 22.3953 8.9581
427 1 Ar 26.8743 22.3953 13.4372
428 1 Ar 26.8743 22.3953 17.9162
429 1 Ar 26.8743 22.3953 22.3953
430 1 Ar 26.8743 22.3953 26.8743
431 1 Ar 26.8743 22.3953 31.3534
432 1 Ar 26.8743 26.8743 0
433 1 Ar 26.8743 26.8743 4.47905
434 1 Ar 26.8743 26.8743 8.9581
435 1 Ar 26.8743 26.8743 13.4372
436 1 Ar 26.8743 26.8743 17.9162
437 1 Ar 26.8743 26.8743 22.3953
438 1 Ar 26.8743 26.8743 26.8743
439 1 Ar 26.8743 26.8743 31.3534
440 1 Ar 26.8743 31.3534 0
441 1 Ar 26.8743 31.3534 4.47905
442 1 Ar 26.8743 31.3534 8.9581
443 1 Ar 26.8743 31.3534 13.4372
444 1 Ar 26.8743 31.3534 17.9162
445 1 Ar 26.8743 31.3534 22.3953
446 1 Ar 26.8743 31.3534 26.8743
447 1 Ar 26.8743 31.3534 31.3534
448 1 Ar 31.3534 0 0
449 1 Ar 31.3534 0 4.47905
450 1 Ar 31.3534 0 8.9581
451 1 Ar 31.3534 0 13.4372
452 1 Ar 31.3534 0 17.9162
453 1 Ar 31.3534 0 22.3953
454 1 Ar 31.3534 0 26.8743
455 1 Ar 31.3534 0 31.3534
456 1 Ar 31.3534 4.47905 0
457 1 Ar 31.3534 4.47905 4.47905
458 1 Ar 31.3534 4.47905 8.9581
459 1 Ar 31.3534 4.47905 13.4372
460 1 Ar 31.3534 4.47905 17.9162
461 1 Ar 31.3534 4.47905 22.3953
462 1 Ar 31.3534 4.47905 26.8743
463 1 Ar 31.3534 4.47905 31.3534
464 1 Ar 31.3534 8.9581 0
465 1 Ar 31.3534 8.9581 4.47905
466 1 Ar 31.3534 8.9581 8.9581
467 1 Ar 31.3534 8.9581 13.4372
468 1 Ar 31.3534 8.9581 17.9162
469 1 Ar 31.3534 8.9581 22.3953
470 1 Ar 31.3534 8.9581 26.8743
471 1 Ar 31.3534 8.9581 31.3534
472 1 Ar 31.3534 13.4372 0
473 1 Ar 31.3534 13.4372 4.47905
474 1 Ar 31.3534 13.4372 8.9581
475 1 Ar 31.3534 13.4372 13.4372
476 1 Ar 31.3534 13.4372 17.9162
477 1 Ar 31.3534 13.4372 22.3953
478 1 Ar 31.3534 13.4372 26.8743
479 1 Ar 31.3534 13.4372 31.3534
480 1 Ar 31.3534 17.9162 0
481 1 Ar 31.3534 17.9162 4.47905
482 1 Ar 31.3534 17.9162 8.9581
483 1 Ar 31.3534 17.9162 13.4372
484 1 Ar 31.3534 17.9162 17.9162
485 1 Ar 31.3534 17.9162 22.3953
486 1 Ar 31.3534 17.9162 26.8743
487 1 Ar 31.3534 17.9162 31.3534
488 1 Ar 31.3534 22.3953 0
489 1 Ar 31.3534 22.3953 4.47905
490 1 Ar 31.3534 22.3953 8.9581
491 1 Ar 31.3534 22.3953 13.4372
492 1 Ar 31.3534 22.3953 17.9162
493 1 Ar 31.3534 22.3953 22.3953
494 1 Ar 31.3534 22.3953 26.8743
495 1 Ar 31.3534 22.3953 31.3534
496 1 Ar 31.3534 26.8743 0
497 1 Ar 31.3534 26.8743 4.47905
498 1 Ar 31.3534 26.8743 8.9581
499 1 Ar 31.3534 26.8743 13.4372
ITEM: TIMESTEP
19999
ITEM: NUMBER OF ATOMS
500
ITEM: BOX BOUNDS pp pp pp
0 40.3115
0 40.3115
0 40.3115
ITEM: ATOMS id type element xu yu zu
0 1 Ar 29.5684 31.2581 22.9994
1 1 Ar 1.9559 0.658035 4.68575
2 1 Ar 3.47132 0.098682 11.974
3 1 Ar 38.1693 39.0508 15.6705
4 1 Ar 4.80338 36.1315 12.8827
5 1 Ar 3.39368 33.2045 26.2294
6 1 Ar 2.80739 0.694277 30.5825
7 1 Ar 32.3327 6.70726 31.6833
8 1 Ar 1.4551 3.55708 1.5134
9 1 Ar 0.989758 5.23517 9.60928
10 1 Ar 35.893 4.66298 10.7957
11 1 Ar 37.1987 7.5078 9.03645
12 1 Ar 3.44003 8.63725 15.2056
13 1 Ar 34.0468 1.51414 15.507
14 1 Ar 40.1401 6.12329 23.9458
15 1 Ar 4.846 6.68125 27.9078
16 1 Ar 31.0896 10.6113 2.72922
17 1 Ar 4.18095 9.96865 5.78632
18 1 Ar 37.4508 6.37248 13.8883
19 1 Ar 33.3175 12.9443 15.0369
20 1 Ar 39.9375 7.39078 18.8536
21 1 Ar 3.25849 7.31451 20.2867
22 1 Ar 35.2991 1.74258 28.0883
23 1 Ar 30.1766 39.0767 28.7378
24 1 Ar 3.46657 10.8634 37.9067
25 1 Ar 39.5583 18.6429 1.59261
26 1 Ar 0.614196 17.0395 6.61428
27 1 Ar 39.6175 8.77079 11.2691
28 1 Ar 3.11886 17.4181 15.1042
29 1 Ar 36.3969 13.049 13.0703
30 1 Ar 4.88064 11.5998 28.2931
31 1 Ar 0.249841 14.3834 30.297
32 1 Ar 8.34348 16.1473 37.2074
33 1 Ar 3.49071 19.0051 4.87796
34 1 Ar 40.0909 18.8562 10.9095
35 1 Ar 38.5635 16.2175 9.26381
36 1 Ar 40.2757 17.9959 17.3842
37 1 Ar 3.65862 21.8614 16.3554
38 1 Ar 3.90394 6.42198 37.9969
39 1 Ar 36.0194 19.6732 27.7585
40 1 Ar 2.04896 22.6679 36.8344
41 1 Ar 39.9781 20.7962 6.48042
42 1 Ar 1.44922 22.2994 11.1894
43 1 Ar 1.33731 24.1093 14.5692
44 1 Ar 0.453719 21.769 18.2174
45 1 Ar 39.8263 11.9109 25.9181
46 1 Ar 1.20953 15.2885 18.9776
47 1 Ar 31.9617 11.9371 34.0635
48 1 Ar 1.97099 27.3713 0.90299
49 1 Ar 1.50565 27.7573 5.24767
50 1 Ar 0.491476 25.4053 8.10276
51 1 Ar 40.1266 28.4944 15.7434
52 1 Ar 38.0942 26.0242 14.6813
53 1 Ar 37.0982 27.455 20.9359
54 1 Ar 4.05792 29.7115 25.3191
55 1 Ar 37.5312 21.886 25.5312
56 1 Ar 0.670419 30.6581 39.512
57 1 Ar 3.85307 33.48 5.06868
58 1 Ar 37.667 32.6283 2.40199
59 1 Ar 11.1169 24.3437 4.84969
60 1 Ar 39.8682 31.6746 17.6887
61 1 Ar 30.0913 31.3964 18.7085
62 1 Ar 0.846597 35.163 32.1913
63 1 Ar 0.875546 29.8288 34.4959
64 1 Ar 5.60454 5.27702 35.3199
65 1 Ar 32.451 33.1955 30.7866
66 1 Ar 11.0809 30.6656 5.50016
67 1 Ar 5.92867 38.1568 10.1091
68 1 Ar 5.06173 0.223776 15.084
69 1 Ar 38.182 38.5977 32.0786
70 1 Ar 14.5584 35.8359 20.7917
71 1 Ar 4.84597 0.721207 33.4923
72 1 Ar 34.9239 26.2969 2.42695
73 1 Ar 4.19941 38.5286 6.51847
74 1 Ar 7.46603 6.04286 10.7954
75 1 Ar 4.5555 6.00146 12.4373
76 1 Ar 2.03119 4.68078 16.8999
77 1 Ar 7.70684 9.11591 13.0184
78 1 Ar 4.14711 0.854823 23.3938
79 1 Ar 4.31769 4.19206 31.1576
80 1 Ar 5.08668 4.68563 1.15256
81 1 Ar 2.42525 10.5658 2.8785
82 1 Ar 2.2989 5.87907 4.26418
83 1 Ar 37.8365 0.352115 12.6438
84 1 Ar 1.51773 10.6504 21.6802
85 1 Ar 4.17699 7.88155 24.2888
86 1 Ar 2.20245 8.87104 26.9722
87 1 Ar 4.98149 7.71159 32.4408
88 1 Ar 6.08965 9.25662 0.66016
89 1 Ar 6.01105 13.6454 6.45514
90 1 Ar 1.82303 14.8856 9.49503
91 1 Ar 7.5588 11.0107 10.1299
92 1 Ar 7.21315 13.6199 19.866
93 1 Ar 10.9806 12.9636 16.4619
94 1 Ar 3.71324 11.3177 24.6577
95 1 Ar 1.70415 6.3736 33.1452
96 1 Ar 11.9409 19.3188 37.5872
97 1 Ar 3.14716 8.78409 35.0483
98 1 Ar 4.37019 17.3224 8.4316
99 1 Ar 4.50483 20.0084 13.4188
100 1 Ar 4.41602 18.1595 19.0745
101 1 Ar 6.43951 17.4201 22.5534
102 1 Ar 40.0945 18.1976 24.4925
103 1 Ar 11.8581 14.8388 31.7376
104 1 Ar 11.2857 24.4613 32.8357
105 1 Ar 3.01541 22.0044 2.60902
106 1 Ar 2.65076 22.824 6.19045
107 1 Ar 5.31029 24.9384 10.7269
108 1 Ar 7.01755 24.8978 21.7512
109 1 Ar 4.10481 21.7241 20.3011
110 1 Ar 6.09234 22.1199 23.9781
111 1 Ar 4.36104 21.8999 33.7459
112 1 Ar 7.37508 25.237 39.2231
113 1 Ar 4.46727 25.6453 3.91555
114 1 Ar 2.77256 28.3741 8.62759
115 1 Ar 4.88159 27.7895 13.2921
116 1 Ar 2.40606 28.2756 20.9881
117 1 Ar 7.60769 19.8301 20.4057
118 1 Ar 6.75627 26.6905 25.0108
119 1 Ar 2.36134 27.8375 31.8889
120 1 Ar 4.71704 31.5926 2.08323
121 1 Ar 0.469051 37.0245 4.47138
122 1 Ar 4.42996 29.7157 5.62453
123 1 Ar 1.55657 30.0682 12.5341
124 1 Ar 5.57813 34.611 15.9723
125 1 Ar 9.39204 1.71361 22.4539
126 1 Ar 9.73752 33.2699 3.28537
127 1 Ar 4.07811 32.1481 39.0965
128 1 Ar 8.58575 3.07491 36.7105
129 1 Ar 12.0272 2.20323 7.38879
130 1 Ar 11.2414 1.87504 12.4035
131 1 Ar 8.61527 39.9588 12.0918
132 1 Ar 7.27795 1.5076 17.7021
133 1 Ar 12.7614 36.735 17.8589
134 1 Ar 11.2642 0.930445 26.1379
135 1 Ar 12.1793 39.1446 36.5246
136 1 Ar 10.1568 4.78882 0.866848
137 1 Ar 9.64681 5.8317 4.94058
138 1 Ar 11.9823 6.82034 7.0242
139 1 Ar 8.44818 2.99574 14.8264
140 1 Ar 7.02494 8.22406 16.9475
141 1 Ar 37.0472 6.36648 28.4581
142 1 Ar 6.44484 2.62753 28.8459
143 1 Ar 8.7342 3.44143 33.2256
144 1 Ar 9.81077 9.28687 39.992
145 1 Ar 7.50916 8.53407 4.05361
146 1 Ar 6.82514 6.90543 7.01267
147 1 Ar 11.7244 5.92915 15.035
148 1 Ar 9.38257 9.92761 19.6587
149 1 Ar 7.00169 9.92834 25.2178
150 1 Ar 8.82823 5.00597 26.551
151 1 Ar 8.17368 6.3128 30.3218
152 1 Ar 7.68414 12.2267 38.9356
153 1 Ar 9.28738 12.5107 3.57267
154 1 Ar 5.01427 14.6225 13.7615
155 1 Ar 13.863 19.0057 9.49638
156 1 Ar 9.9487 16.4732 18.2885
157 1 Ar 11.4503 10.3958 24.6445
158 1 Ar 5.82215 15.9415 25.7842
159 1 Ar 8.36757 12.6182 30.7002
160 1 Ar 5.22827 19.6175 28.2508
161 1 Ar 8.11048 18.4128 5.73501
162 1 Ar 5.50114 21.9847 8.87514
163 1 Ar 7.05855 18.4917 15.7927
164 1 Ar 11.5956 19.6033 16.2045
165 1 Ar 10.626 18.6519 23.428
166 1 Ar 8.19687 18.0937 26.3242
167 1 Ar 6.49716 15.4988 30.0958
168 1 Ar 8.69405 25.4434 1.89544
169 1 Ar 7.04856 22.9591 3.65138
170 1 Ar 8.42132 23.9995 7.71465
171 1 Ar 9.21594 27.108 10.126
172 1 Ar 9.74424 22.0143 18.6698
173 1 Ar 10.1408 22.1756 22.8822
174 1 Ar 10.6465 20.9078 26.0981
175 1 Ar 8.59925 21.191 29.5451
176 1 Ar 13.8429 26.6979 29.6906
177 1 Ar 6.67002 28.6219 3.15261
178 1 Ar 15.5601 26.803 12.8636
179 1 Ar 10.3216 29.0042 14.4076
180 1 Ar 3.36378 27.1478 17.357
181 1 Ar 9.6143 26.5214 23.0003
182 1 Ar 8.51683 23.934 25.9442
183 1 Ar 1.55003 20.3113 29.2858
184 1 Ar 10.3073 31.3905 38.6755
185 1 Ar 6.01897 26.9697 7.64476
186 1 Ar 8.38751 31.0874 10.5267
187 1 Ar 6.19213 31.9827 13.0412
188 1 Ar 3.16727 31.2141 15.8169
189 1 Ar 8.49447 32.1101 21.7901
190 1 Ar 9.98964 28.4177 29.7266
191 1 Ar 38.5709 28.4589 1.7778
192 1 Ar 18.9592 37.4098 29.5072
193 1 Ar 13.709 0.750526 0.180202
194 1 Ar 7.85021 39.7634 6.8476
195 1 Ar 15.2273 40.2888 16.4116
196 1 Ar 14.4941 0.863101 20.0671
197 1 Ar 14.1056 40.1361 23.9087
198 1 Ar 10.891 4.46796 29.3947
199 1 Ar 14.2374 2.48409 28.9944
200 1 Ar 14.7207 8.17288 4.73397
201 1 Ar 13.2511 4.19961 3.74993
202 1 Ar 11.5224 5.23395 11.2942
203 1 Ar 15.0558 2.7953 11.2116
204 1 Ar 14.5249 8.48946 14.8352
205 1 Ar 14.7149 8.00417 20.01
206 1 Ar 13.8659 3.85908 25.1244
207 1 Ar 9.60676 12.7011 34.8542
208 1 Ar 12.4478 13.7473 1.4187
209 1 Ar 12.0176 6.99316 2.70948
210 1 Ar 15.2197 0.190942 7.07254
211 1 Ar 8.54954 14.8211 14.8624
212 1 Ar 13.2298 12.5478 19.8322
213 1 Ar 9.61536 11.0758 27.9096
214 1 Ar 14.5886 6.3231 28.4559
215 1 Ar 11.3212 8.65916 34.6676
216 1 Ar 11.8954 11.9065 37.536
217 1 Ar 13.8598 7.17653 39.9049
218 1 Ar 12.0439 12.9011 9.73404
219 1 Ar 16.2023 16.3145 10.2327
220 1 Ar 13.541 15.0508 17.1984
221 1 Ar 12.3275 15.1823 22.5393
222 1 Ar 11.2444 15.6592 27.0115
223 1 Ar 11.9267 19.0648 30.0426
224 1 Ar 15.4263 19.0734 30.9548
225 1 Ar 12.6982 20.2186 5.45096
226 1 Ar 16.1001 22.7803 5.48001
227 1 Ar 15.4302 17.234 14.4229
228 1 Ar 13.9109 18.5334 19.788
229 1 Ar 15.5724 18.0718 22.8009
230 1 Ar 14.0787 19.9483 26.1072
231 1 Ar 16.0443 12.6285 36.7799
232 1 Ar 12.8011 17.1361 2.12142
233 1 Ar 16.9829 18.983 7.86602
234 1 Ar 10.5813 17.9638 11.9434
235 1 Ar 16.8756 24.2283 17.6411
236 1 Ar 14.0129 23.8108 20.4554
237 1 Ar 13.533 22.0626 23.246
238 1 Ar 21.869 24.3086 26.4358
239 1 Ar 10.9332 24.1578 39.5125
240 1 Ar 9.55921 22.1308 35.8215
241 1 Ar 9.76579 19.3679 1.45118
242 1 Ar 18.7527 25.9249 3.90293
243 1 Ar 12.0801 34.5555 15.3471
244 1 Ar 10.4182 26.6686 19.32
245 1 Ar 13.534 25.8272 23.4007
246 1 Ar 12.3143 28.9867 25.4853
247 1 Ar 11.8943 22.6488 29.579
248 1 Ar 13.5883 32.985 33.3515
249 1 Ar 11.468 29.7019 1.5424
250 1 Ar 14.2391 33.3909 9.96644
251 1 Ar 15.0084 37.7055 14.0478
252 1 Ar 19.1944 36.6247 18.3054
253 1 Ar 6.83627 29.3492 15.5964
254 1 Ar 8.15297 30.4419 25.7131
255 1 Ar 13.9099 30.7972 30.4657
256 1 Ar 36.3472 15.3306 3.7606
257 1 Ar 18.1414 40.2456 3.88347
258 1 Ar 12.6424 37.7058 10.6385
259 1 Ar 12.8511 29.8237 21.8956
260 1 Ar 20.0839 31.0488 16.0884
261 1 Ar 16.43 36.2143 26.0986
262 1 Ar 18.4349 1.42676 27.4065
263 1 Ar 20.9712 37.1696 22.6311
264 1 Ar 14.446 36.0868 31.655
265 1 Ar 20.3288 4.47658 5.09395
266 1 Ar 15.8086 8.65979 9.12374
267 1 Ar 16.511 5.0178 17.1601
268 1 Ar 15.6451 4.1619 20.5133
269 1 Ar 21.8068 6.64651 33.0339
270 1 Ar 18.2328 5.22982 25.5064
271 1 Ar 22.2786 1.27597 36.2291
272 1 Ar 18.4738 10.4738 39.5315
273 1 Ar 18.8726 29.8369 13.1302
274 1 Ar 20.7123 10.8243 9.30924
275 1 Ar 18.9634 9.1738 12.164
276 1 Ar 19.4492 6.83439 15.6275
277 1 Ar 20.05 8.16046 22.672
278 1 Ar 15.8591 9.11852 23.5359
279 1 Ar 20.6784 9.02048 30.6301
280 1 Ar 18.9467 16.8046 1.3161
281 1 Ar 20.7131 13.1402 4.61397
282 1 Ar 16.7047 12.0191 9.23165
283 1 Ar 14.2119 12.021 14.4734
284 1 Ar 17.3127 14.0925 18.0493
285 1 Ar 16.3574 14.6175 21.5688
286 1 Ar 18.6478 12.094 27.2906
287 1 Ar 17.4705 14.1624 29.8217
288 1 Ar 17.1975 15.1499 4.11846
289 1 Ar 18.8933 18.3972 4.34201
290 1 Ar 20.2314 14.9309 8.90328
291 1 Ar 18.1922 18.9029 12.2962
292 1 Ar 17.9486 17.6188 20.0007
293 1 Ar 19.1321 17.9693 23.3196
294 1 Ar 15.6298 13.9471 24.9944
295 1 Ar 15.5514 16.8528 28.4052
296 1 Ar 18.5333 22.079 1.58699
297 1 Ar 23.1295 17.6229 2.99026
298 1 Ar 19.6045 23.9099 7.69131
299 1 Ar 20.0481 22.0355 11.553
300 1 Ar 16.9736 21.3249 20.7379
301 1 Ar 20.1172 21.9625 15.6767
302 1 Ar 16.4806 21.5932 28.1558
303 1 Ar 19.6975 23.0035 33.7245
304 1 Ar 24.2073 16.9686 38.7926
305 1 Ar 26.5649 25.1031 36.2917
306 1 Ar 20.1915 6.9004 0.0934726
307 1 Ar 19.355 25.94 13.6577
308 1 Ar 20.6252 27.6478 16.7183
309 1 Ar 17.3498 20.3195 16.8858
310 1 Ar 17.5443 27.5167 28.7622
311 1 Ar 20.4577 25.7327 30.7259
312 1 Ar 16.5942 30.3998 0.210961
313 1 Ar 15.9975 25.5222 0.671576
314 1 Ar 9.01675 27.2738 34.209
315 1 Ar 17.2319 1.87734 14.3046
316 1 Ar 18.3436 29.9845 19.2934
317 1 Ar 20.929 31.0972 26.1438
318 1 Ar 18.1126 34.2086 28.524
319 1 Ar 16.9922 31.7612 31.939
320 1 Ar 23.9362 37.3863 2.43737
321 1 Ar 19.8464 2.42466 39.7207
322 1 Ar 26.8178 38.1922 13.2033
323 1 Ar 19.0488 40.3045 17.213
324 1 Ar 22.9536 0.778626 17.688
325 1 Ar 23.6868 37.2038 14.4928
326 1 Ar 22.8404 38.612 27.735
327 1 Ar 18.8394 34.1149 21.1199
328 1 Ar 26.5729 6.779 37.8834
329 1 Ar 23.3789 6.22794 2.95798
330 1 Ar 23.883 6.01802 6.27413
331 1 Ar 24.3161 3.63727 13.1188
332 1 Ar 22.9121 4.53147 17.0732
333 1 Ar 21.8327 4.62624 21.9781
334 1 Ar 22.5553 2.66867 29.5445
335 1 Ar 26.0964 10.0974 33.3392
336 1 Ar 16.0543 8.53728 37.2111
337 1 Ar 22.4333 9.36105 5.30521
338 1 Ar 21.8098 7.65285 9.22859
339 1 Ar 23.2791 10.353 14.1036
340 1 Ar 21.8749 8.19518 19.5703
341 1 Ar 19.7247 4.52411 18.6666
342 1 Ar 22.1131 7.75788 27.1473
343 1 Ar 22.0937 11.9948 32.4673
344 1 Ar 25.9803 11.022 2.49807
345 1 Ar 22.5178 16.239 6.30971
346 1 Ar 23.2019 12.4223 7.35624
347 1 Ar 22.5864 14.5077 14.8307
348 1 Ar 20.1605 11.876 16.3885
349 1 Ar 20.5533 13.6792 20.3406
350 1 Ar 21.8407 11.9238 24.0686
351 1 Ar 22.2094 11.8289 28.9142
352 1 Ar 12.6673 10.3227 6.88535
353 1 Ar 21.7789 19.0781 9.21698
354 1 Ar 26.6605 17.7406 10.1125
355 1 Ar 19.751 18.094 15.1581
356 1 Ar 21.6732 16.9881 19.9068
357 1 Ar 21.7182 15.9005 24.4903
358 1 Ar 23.5426 17.178 27.9543
359 1 Ar 19.9416 19.8476 27.6983
360 1 Ar 21.5583 24.8791 37.0612
361 1 Ar 22.7523 21.8113 39.7705
362 1 Ar 23.4678 23.5124 10.1368
363 1 Ar 22.6306 18.3388 12.7689
364 1 Ar 21.2649 20.3326 21.4821
365 1 Ar 26.4026 21.2255 23.146
366 1 Ar 24.2344 20.5158 27.8442
367 1 Ar 24.0147 29.6456 38.4491
368 1 Ar 23.6492 22.8175 33.9778
369 1 Ar 21.7169 28.1456 3.55846
370 1 Ar 24.0263 28.746 8.24781
371 1 Ar 16.9386 25.6419 9.49544
372 1 Ar 21.6585 31.4191 22.9924
373 1 Ar 23.2245 29.1094 20.4491
374 1 Ar 25.8758 29.9307 23.8651
375 1 Ar 17.1471 24.1121 25.7562
376 1 Ar 17.7492 5.4355 8.1809
377 1 Ar 24.1674 30.6225 5.32215
378 1 Ar 18.9961 29.2787 7.4541
379 1 Ar 13.4894 30.6244 12.7993
380 1 Ar 29.8675 26.7127 7.90478
381 1 Ar 26.988 34.2039 20.7515
382 1 Ar 22.2769 35.392 25.9304
383 1 Ar 20.6423 31.0725 32.9539
384 1 Ar 28.9495 2.02031 5.46713
385 1 Ar 26.423 3.90768 2.86656
386 1 Ar 36.6147 38.1081 3.19382
387 1 Ar 26.9481 36.0456 16.4004
388 1 Ar 25.7432 1.89657 20.2063
389 1 Ar 29.762 38.677 23.7516
390 1 Ar 25.4814 0.21161 25.0189
391 1 Ar 26.2398 1.03548 30.1763
392 1 Ar 25.9202 2.74014 38.9368
393 1 Ar 27.0623 6.87021 6.43131
394 1 Ar 24.9781 2.87135 9.61517
395 1 Ar 28.0265 2.995 12.1468
396 1 Ar 26.5681 5.51411 19.9908
397 1 Ar 26.0659 4.6066 23.7121
398 1 Ar 26.7751 4.19256 27.3643
399 1 Ar 27.5027 7.48658 29.4923
400 1 Ar 26.8953 7.64193 2.70731
401 1 Ar 30.1248 9.66512 7.48671
402 1 Ar 24.9399 9.08803 7.79283
403 1 Ar 26.273 10.405 11.2733
404 1 Ar 26.0774 6.25789 15.5699
405 1 Ar 29.9377 12.953 23.4468
406 1 Ar 28.627 10.5184 26.1571
407 1 Ar 25.7746 6.67165 33.5224
408 1 Ar 24.0226 14.4351 1.2261
409 1 Ar 27.7102 11.7516 6.05795
410 1 Ar 28.4429 7.79248 11.9333
411 1 Ar 28.6254 10.7273 13.9299
412 1 Ar 25.6406 12.9277 17.367
413 1 Ar 27.6567 14.2027 20.9445
414 1 Ar 27.1774 13.4313 27.5752
415 1 Ar 28.7631 11.6462 30.8985
416 1 Ar 21.917 33.4798 3.0891
417 1 Ar 28.0196 18.311 3.95542
418 1 Ar 26.4149 14.4707 7.94087
419 1 Ar 24.0376 14.173 11.259
420 1 Ar 27.383 18.5568 16.905
421 1 Ar 25.5379 18.0167 21.3713
422 1 Ar 24.5779 13.5802 21.6596
423 1 Ar 25.9821 18.4571 30.2598
424 1 Ar 27.0466 21.7887 1.0274
425 1 Ar 25.3567 22.1242 4.52168
426 1 Ar 27.1934 20.5858 12.8769
427 1 Ar 29.7749 23.5764 15.0845
428 1 Ar 22.3055 29.6797 13.5193
429 1 Ar 35.3447 35.398 32.5133
430 1 Ar 28.6779 20.8143 27.1835
431 1 Ar 25.4557 24.7608 28.4168
432 1 Ar 22.7585 35.8455 5.90238
433 1 Ar 25.6209 27.8161 4.01343
434 1 Ar 25.7853 25.8667 8.22993
435 1 Ar 26.1401 24.538 13.2889
436 1 Ar 27.4181 29.2182 20.5163
437 1 Ar 22.9167 32.1556 29.6225
438 1 Ar 26.4452 28.4339 29.6524
439 1 Ar 22.6411 27.8731 29.1165
440 1 Ar 34.8958 0.12859 5.47188
441 1 Ar 27.3705 32.8998 2.00286
442 1 Ar 27.3865 27.7817 10.4085
443 1 Ar 11.5566 20.7669 32.9349
444 1 Ar 29.5545 31.7767 15.5118
445 1 Ar 30.986 35.2544 22.4363
446 1 Ar 28.0909 33.0459 25.9599
447 1 Ar 25.7784 28.8858 34.5126
448 1 Ar 31.001 0.957344 32.5512
449 1 Ar 32.139 5.18943 9.42913
450 1 Ar 36.6485 29.9762 8.09084