ITEM: TIMESTEP
-1
ITEM: NUMBER OF ATOMS
500
ITEM: BOX BOUNDS pp pp pp
0 30.3927
0 30.3927
0 30.3927
ITEM: ATOMS id type element xu yu zu
0 1 Ar 0 0 0
1 1 Ar 0 0 3.37697
2 1 Ar 0 0 6.75394
3 1 Ar 0 0 10.1309
4 1 Ar 0 0 13.5079
5 1 Ar 0 0 16.8848
6 1 Ar 0 0 20.2618
7 1 Ar 0 0 23.6388
8 1 Ar 0 3.37697 0
9 1 Ar 0 3.37697 3.37697
10 1 Ar 0 3.37697 6.75394
11 1 Ar 0 3.37697 10.1309
12 1 Ar 0 3.37697 13.5079
13 1 Ar 0 3.37697 16.8848
14 1 Ar 0 3.37697 20.2618
15 1 Ar 0 3.37697 23.6388
16 1 Ar 0 6.75394 0
17 1 Ar 0 6.75394 3.37697
18 1 Ar 0 6.75394 6.75394
19 1 Ar 0 6.75394 10.1309
20 1 Ar 0 6.75394 13.5079
21 1 Ar 0 6.75394 16.8848
22 1 Ar 0 6.75394 20.2618
23 1 Ar 0 6.75394 23.6388
24 1 Ar 0 10.1309 0
25 1 Ar 0 10.1309 3.37697
26 1 Ar 0 10.1309 6.75394
27 1 Ar 0 10.1309 10.1309
28 1 Ar 0 10.1309 13.5079
29 1 Ar 0 10.1309 16.8848
30 1 Ar 0 10.1309 20.2618
31 1 Ar 0 10.1309 23.6388
32 1 Ar 0 13.5079 0
33 1 Ar 0 13.5079 3.37697
34 1 Ar 0 13.5079 6.75394
35 1 Ar 0 13.5079 10.1309
36 1 Ar 0 13.5079 13.5079
37 1 Ar 0 13.5079 16.8848
38 1 Ar 0 13.5079 20.2618
39 1 Ar 0 13.5079 23.6388
40 1 Ar 0 16.8848 0
41 1 Ar 0 16.8848 3.37697
42 1 Ar 0 16.8848 6.75394
43 1 Ar 0 16.8848 10.1309
44 1 Ar 0 16.8848 13.5079
45 1 Ar 0 16.8848 16.8848
46 1 Ar 0 16.8848 20.2618
47 1 Ar 0 16.8848 23.6388
48 1 Ar 0 20.2618 0
49 1 Ar 0 20.2618 3.37697
50 1 Ar 0 20.2618 6.75394
51 1 Ar 0 20.2618 10.1309
52 1 Ar 0 20.2618 13.5079
53 1 Ar 0 20.2618 16.8848
54 1 Ar 0 20.2618 20.2618
55 1 Ar 0 20.2618 23.6388
56 1 Ar 0 23.6388 0
57 1 Ar 0 23.6388 3.37697
58 1 Ar 0 23.6388 6.75394
59 1 Ar 0 23.6388 10.1309
60 1 Ar 0 23.6388 13.5079
61 1 Ar 0 23.6388 16.8848
62 1 Ar 0 23.6388 20.2618
63 1 Ar 0 23.6388 23.6388
64 1 Ar 3.37697 0 0
65 1 Ar 3.37697 0 3.37697
66 1 Ar 3.37697 0 6.75394
67 1 Ar 3.37697 0 10.1309
68 1 Ar 3.37697 0 13.5079
69 1 Ar 3.37697 0 16.8848
70 1 Ar 3.37697 0 20.2618
71 1 Ar 3.37697 0 23.6388
72 1 Ar 3.37697 3.37697 0
73 1 Ar 3.37697 3.37697 3.37697
74 1 Ar 3.37697 3.37697 6.75394
75 1 Ar 3.37697 3.37697 10.1309
76 1 Ar 3.37697 3.37697 13.5079
77 1 Ar 3.37697 3.37697 16.8848
78 1 Ar 3.37697 3.37697 20.2618
79 1 Ar 3.37697 3.37697 23.6388
80 1 Ar 3.37697 6.75394 0
81 1 Ar 3.37697 6.75394 3.37697
82 1 Ar 3.37697 6.75394 6.75394
83 1 Ar 3.37697 6.75394 10.1309
84 1 Ar 3.37697 6.75394 13.5079
85 1 Ar 3.37697 6.75394 16.8848
86 1 Ar 3.37697 6.75394 20.2618
87 1 Ar 3.37697 6.75394 23.6388
88 1 Ar 3.37697 10.1309 0
89 1 Ar 3.37697 10.1309 3.37697
90 1 Ar 3.37697 10.1309 6.75394
91 1 Ar 3.37697 10.1309 10.1309
92 1 Ar 3.37697 10.1309 13.5079
93 1 Ar 3.37697 10.1309 16.8848
94 1 Ar 3.37697 10.1309 20.2618
95 1 Ar 3.37697 10.1309 23.6388
96 1 Ar 3.37697 13.5079 0
97 1 Ar 3.37697 13.5079 3.37697
98 1 Ar 3.37697 13.5079 6.75394
99 1 Ar 3.37697 13.5079 10.1309
100 1 Ar 3.37697 13.5079 13.5079
101 1 Ar 3.37697 13.5079 16.8848
102 1 Ar 3.37697 13.5079 20.2618
103 1 Ar 3.37697 13.5079 23.6388
104 1 Ar 3.37697 16.8848 0
105 1 Ar 3.37697 16.8848 3.37697
106 1 Ar 3.37697 16.8848 6.75394
107 1 Ar 3.37697 16.8848 10.1309
108 1 Ar 3.37697 16.8848 13.5079
109 1 Ar 3.37697 16.8848 16.8848
110 1 Ar 3.37697 16.8848 20.2618
111 1 Ar 3.37697 16.8848 23.6388
112 1 Ar 3.37697 20.2618 0
113 1 Ar 3.37697 20.2618 3.37697
114 1 Ar 3.37697 20.2618 6.75394
115 1 Ar 3.37697 20.2618 10.1309
116 1 Ar 3.37697 20.2618 13.5079
117 1 Ar 3.37697 20.2618 16.8848
118 1 Ar 3.37697 20.2618 20.2618
119 1 Ar 3.37697 20.2618 23.6388
120 1 Ar 3.37697 23.6388 0
121 1 Ar 3.37697 23.6388 3.37697
122 1 Ar 3.37697 23.6388 6.75394
123 1 Ar 3.37697 23.6388 10.1309
124 1 Ar 3.37697 23.6388 13.5079
125 1 Ar 3.37697 23.6388 16.8848
126 1 Ar 3.37697 23.6388 20.2618
127 1 Ar 3.37697 23.6388 23.6388
128 1 Ar 6.75394 0 0
129 1 Ar 6.75394 0 3.37697
130 1 Ar 6.75394 0 6.75394
131 1 Ar 6.75394 0 10.1309
132 1 Ar 6.75394 0 13.5079
133 1 Ar 6.75394 0 16.8848
134 1 Ar 6.75394 0 20.2618
135 1 Ar 6.75394 0 23.6388
136 1 Ar 6.75394 3.37697 0
137 1 Ar 6.75394 3.37697 3.37697
138 1 Ar 6.75394 3.37697 6.75394
139 1 Ar 6.75394 3.37697 10.1309
140 1 Ar 6.75394 3.37697 13.5079
141 1 Ar 6.75394 3.37697 16.8848
142 1 Ar 6.75394 3.37697 20.2618
143 1 Ar 6.75394 3.37697 23.6388
144 1 Ar 6.75394 6.75394 0
145 1 Ar 6.75394 6.75394 3.37697
146 1 Ar 6.75394 6.75394 6.75394
147 1 Ar 6.75394 6.75394 10.1309
148 1 Ar 6.75394 6.75394 13.5079
149 1 Ar 6.75394 6.75394 16.8848
150 1 Ar 6.75394 6.75394 20.2618
151 1 Ar 6.75394 6.75394 23.6388
152 1 Ar 6.75394 10.1309 0
153 1 Ar 6.75394 10.1309 3.37697
154 1 Ar 6.75394 10.1309 6.75394
155 1 Ar 6.75394 10.1309 10.1309
156 1 Ar 6.75394 10.1309 13.5079
157 1 Ar 6.75394 10.1309 16.8848
158 1 Ar 6.75394 10.1309 20.2618
159 1 Ar 6.75394 10.1309 23.6388
160 1 Ar 6.75394 13.5079 0
161 1 Ar 6.75394 13.5079 3.37697
162 1 Ar 6.75394 13.5079 6.75394
163 1 Ar 6.75394 13.5079 10.1309
164 1 Ar 6.75394 13.5079 13.5079
165 1 Ar 6.75394 13.5079 16.8848
166 1 Ar 6.75394 13.5079 20.2618
167 1 Ar 6.75394 13.5079 23.6388
168 1 Ar 6.75394 16.8848 0
169 1 Ar 6.75394 16.8848 3.37697
170 1 Ar 6.75394 16.8848 6.75394
171 1 Ar 6.75394 16.8848 10.1309
172 1 Ar 6.75394 16.8848 13.5079
173 1 Ar 6.75394 16.8848 16.8848
174 1 Ar 6.75394 16.8848 20.2618
175 1 Ar 6.75394 16.8848 23.6388
176 1 Ar 6.75394 20.2618 0
177 1 Ar 6.75394 20.2618 3.37697
178 1 Ar 6.75394 20.2618 6.75394
179 1 Ar 6.75394 20.2618 10.1309
180 1 Ar 6.75394 20.2618 13.5079
181 1 Ar 6.75394 20.2618 16.8848
182 1 Ar 6.75394 20.2618 20.2618
183 1 Ar 6.75394 20.2618 23.6388
184 1 Ar 6.75394 23.6388 0
185 1 Ar 6.75394 23.6388 3.37697
186 1 Ar 6.75394 23.6388 6.75394
187 1 Ar 6.75394 23.6388 10.1309
188 1 Ar 6.75394 23.6388 13.5079
189 1 Ar 6.75394 23.6388 16.8848
190 1 Ar 6.75394 23.6388 20.2618
191 1 Ar 6.75394 23.6388 23.6388
192 1 Ar 10.1309 0 0
193 1 Ar 10.1309 0 3.37697
194 1 Ar 10.1309 0 6.75394
195 1 Ar 10.1309 0 10.1309
196 1 Ar 10.1309 0 13.5079
197 1 Ar 10.1309 0 16.8848
198 1 Ar 10.1309 0 20.2618
199 1 Ar 10.1309 0 23.6388
200 1 Ar 10.1309 3.37697 0
201 1 Ar 10.1309 3.37697 3.37697
202 1 Ar 10.1309 3.37697 6.75394
203 1 Ar 10.1309 3.37697 10.1309
204 1 Ar 10.1309 3.37697 13.5079
205 1 Ar 10.1309 3.37697 16.8848
206 1 Ar 10.1309 3.37697 20.2618
207 1 Ar 10.1309 3.37697 23.6388
208 1 Ar 10.1309 6.75394 0
209 1 Ar 10.1309 6.75394 3.37697
210 1 Ar 10.1309 6.75394 6.75394
211 1 Ar 10.1309 6.75394 10.1309
212 1 Ar 10.1309 6.75394 13.5079
213 1 Ar 10.1309 6.75394 16.8848
214 1 Ar 10.1309 6.75394 20.2618
215 1 Ar 10.1309 6.75394 23.6388
216 1 Ar 10.1309 10.1309 0
217 1 Ar 10.1309 10.1309 3.37697
218 1 Ar 10.1309 10.1309 6.75394
219 1 Ar 10.1309 10.1309 10.1309
220 1 Ar 10.1309 10.1309 13.5079
221 1 Ar 10.1309 10.1309 16.8848
222 1 Ar 10.1309 10.1309 20.2618
223 1 Ar 10.1309 10.1309 23.6388
224 1 Ar 10.1309 13.5079 0
225 1 Ar 10.1309 13.5079 3.37697
226 1 Ar 10.1309 13.5079 6.75394
227 1 Ar 10.1309 13.5079 10.1309
228 1 Ar 10.1309 13.5079 13.5079
229 1 Ar 10.1309 13.5079 16.8848
230 1 Ar 10.1309 13.5079 20.2618
231 1 Ar 10.1309 13.5079 23.6388
232 1 Ar 10.1309 16.8848 0
233 1 Ar 10.1309 16.8848 3.37697
234 1 Ar 10.1309 16.8848 6.75394
235 1 Ar 10.1309 16.8848 10.1309
236 1 Ar 10.1309 16.8848 13.5079
237 1 Ar 10.1309 16.8848 16.8848
238 1 Ar 10.1309 16.8848 20.2618
239 1 Ar 10.1309 16.8848 23.6388
240 1 Ar 10.1309 20.2618 0
241 1 Ar 10.1309 20.2618 3.37697
242 1 Ar 10.1309 20.2618 6.75394
243 1 Ar 10.1309 20.2618 10.1309
244 1 Ar 10.1309 20.2618 13.5079
245 1 Ar 10.1309 20.2618 16.8848
246 1 Ar 10.1309 20.2618 20.2618
247 1 Ar 10.1309 20.2618 23.6388
248 1 Ar 10.1309 23.6388 0
249 1 Ar 10.1309 23.6388 3.37697
250 1 Ar 10.1309 23.6388 6.75394
251 1 Ar 10.1309 23.6388 10.1309
252 1 Ar 10.1309 23.6388 13.5079
253 1 Ar 10.1309 23.6388 16.8848
254 1 Ar 10.1309 23.6388 20.2618
255 1 Ar 10.1309 23.6388 23.6388
256 1 Ar 13.5079 0 0
257 1 Ar 13.5079 0 3.37697
258 1 Ar 13.5079 0 6.75394
259 1 Ar 13.5079 0 10.1309
260 1 Ar 13.5079 0 13.5079
261 1 Ar 13.5079 0 16.8848
262 1 Ar 13.5079 0 20.2618
263 1 Ar 13.5079 0 23.6388
264 1 Ar 13.5079 3.37697 0
265 1 Ar 13.5079 3.37697 3.37697
266 1 Ar 13.5079 3.37697 6.75394
267 1 Ar 13.5079 3.37697 10.1309
268 1 Ar 13.5079 3.37697 13.5079
269 1 Ar 13.5079 3.37697 16.8848
270 1 Ar 13.5079 3.37697 20.2618
271 1 Ar 13.5079 3.37697 23.6388
272 1 Ar 13.5079 6.75394 0
273 1 Ar 13.5079 6.75394 3.37697
274 1 Ar 13.5079 6.75394 6.75394
275 1 Ar 13.5079 6.75394 10.1309
276 1 Ar 13.5079 6.75394 13.5079
277 1 Ar 13.5079 6.75394 16.8848
278 1 Ar 13.5079 6.75394 20.2618
279 1 Ar 13.5079 6.75394 23.6388
280 1 Ar 13.5079 10.1309 0
281 1 Ar 13.5079 10.1309 3.37697
282 1 Ar 13.5079 10.1309 6.75394
283 1 Ar 13.5079 10.1309 10.1309
284 1 Ar 13.5079 10.1309 13.5079
285 1 Ar 13.5079 10.1309 16.8848
286 1 Ar 13.5079 10.1309 20.2618
287 1 Ar 13.5079 10.1309 23.6388
288 1 Ar 13.5079 13.5079 0
289 1 Ar 13.5079 13.5079 3.37697
290 1 Ar 13.5079 13.5079 6.75394
291 1 Ar 13.5079 13.5079 10.1309
292 1 Ar 13.5079 13.5079 13.5079
293 1 Ar 13.5079 13.5079 16.8848
294 1 Ar 13.5079 13.5079 20.2618
295 1 Ar 13.5079 13.5079 23.6388
296 1 Ar 13.5079 16.8848 0
297 1 Ar 13.5079 16.8848 3.37697
298 1 Ar 13.5079 16.8848 6.75394
299 1 Ar 13.5079 16.8848 10.1309
300 1 Ar 13.5079 16.8848 13.5079
301 1 Ar 13.5079 16.8848 16.8848
302 1 Ar 13.5079 16.8848 20.2618
303 1 Ar 13.5079 16.8848 23.6388
304 1 Ar 13.5079 20.2618 0
305 1 Ar 13.5079 20.2618 3.37697
306 1 Ar 13.5079 20.2618 6.75394
307 1 Ar 13.5079 20.2618 10.1309
308 1 Ar 13.5079 20.2618 13.5079
309 1 Ar 13.5079 20.2618 16.8848
310 1 Ar 13.5079 20.2618 20.2618
311 1 Ar 13.5079 20.2618 23.6388
312 1 Ar 13.5079 23.6388 0
313 1 Ar 13.5079 23.6388 3.37697
314 1 Ar 13.5079 23.6388 6.75394
315 1 Ar 13.5079 23.6388 10.1309
316 1 Ar 13.5079 23.6388 13.5079
317 1 Ar 13.5079 23.6388 16.8848
318 1 Ar 13.5079 23.6388 20.2618
319 1 Ar 13.5079 23.6388 23.6388
320 1 Ar 16.8848 0 0
321 1 Ar 16.8848 0 3.37697
322 1 Ar 16.8848 0 6.75394
323 1 Ar 16.8848 0 10.1309
324 1 Ar 16.8848 0 13.5079
325 1 Ar 16.8848 0 16.8848
326 1 Ar 16.8848 0 20.2618
327 1 Ar 16.8848 0 23.6388
328 1 Ar 16.8848 3.37697 0
329 1 Ar 16.8848 3.37697 3.37697
330 1 Ar 16.8848 3.37697 6.75394
331 1 Ar 16.8848 3.37697 10.1309
332 1 Ar 16.8848 3.37697 13.5079
333 1 Ar 16.8848 3.37697 16.8848
334 1 Ar 16.8848 3.37697 20.2618
335 1 Ar 16.8848 3.37697 23.6388
336 1 Ar 16.8848 6.75394 0
337 1 Ar 16.8848 6.75394 3.37697
338 1 Ar 16.8848 6.75394 6.75394
339 1 Ar 16.8848 6.75394 10.1309
340 1 Ar 16.8848 6.75394 13.5079
341 1 Ar 16.8848 6.75394 16.8848
342 1 Ar 16.8848 6.75394 20.2618
343 1 Ar 16.8848 6.75394 23.6388
344 1 Ar 16.8848 10.1309 0
345 1 Ar 16.8848 10.1309 3.37697
346 1 Ar 16.8848 10.1309 6.75394
347 1 Ar 16.8848 10.1309 10.1309
348 1 Ar 16.8848 10.1309 13.5079
349 1 Ar 16.8848 10.1309 16.8848
350 1 Ar 16.8848 10.1309 20.2618
351 1 Ar 16.8848 10.1309 23.6388
352 1 Ar 16.8848 13.5079 0
353 1 Ar 16.8848 13.5079 3.37697
354 1 Ar 16.8848 13.5079 6.75394
355 1 Ar 16.8848 13.5079 10.1309
356 1 Ar 16.8848 13.5079 13.5079
357 1 Ar 16.8848 13.5079 16.8848
358 1 Ar 16.8848 13.5079 20.2618
359 1 Ar 16.8848 13.5079 23.6388
360 1 Ar 16.8848 16.8848 0
361 1 Ar 16.8848 16.8848 3.37697
362 1 Ar 16.8848 16.8848 6.75394
363 1 Ar 16.8848 16.8848 10.1309
364 1 Ar 16.8848 16.8848 13.5079
365 1 Ar 16.8848 16.8848 16.8848
366 1 Ar 16.8848 16.8848 20.2618
367 1 Ar 16.8848 16.8848 23.6388
368 1 Ar 16.8848 20.2618 0
369 1 Ar 16.8848 20.2618 3.37697
370 1 Ar 16.8848 20.2618 6.75394
371 1 Ar 16.8848 20.2618 10.1309
372 1 Ar 16.8848 20.2618 13.5079
373 1 Ar 16.8848 20.2618 16.8848
374 1 Ar 16.8848 20.2618 20.2618
375 1 Ar 16.8848 20.2618 23.6388
376 1 Ar 16.8848 23.6388 0
377 1 Ar 16.8848 23.6388 3.37697
378 1 Ar 16.8848 23.6388 6.75394
379 1 Ar 16.8848 23.6388 10.1309
380 1 Ar 16.8848 23.6388 13.5079
381 1 Ar 16.8848 23.6388 16.8848
382 1 Ar 16.8848 23.6388 20.2618
383 1 Ar 16.8848 23.6388 23.6388
384 1 Ar 20.2618 0 0
385 1 Ar 20.2618 0 3.37697
386 1 Ar 20.2618 0 6.75394
387 1 Ar 20.2618 0 10.1309
388 1 Ar 20.2618 0 13.5079
389 1 Ar 20.2618 0 16.8848
390 1 Ar 20.2618 0 20.2618
391 1 Ar 20.2618 0 23.6388
392 1 Ar 20.2618 3.37697 0
393 1 Ar 20.2618 3.37697 3.37697
394 1 Ar 20.2618 3.37697 6.75394
395 1 Ar 20.2618 3.37697 10.1309
396 1 Ar 20.2618 3.37697 13.5079
397 1 Ar 20.2618 3.37697 16.8848
398 1 Ar 20.2618 3.37697 20.2618
399 1 Ar 20.2618 3.37697 23.6388
400 1 Ar 20.2618 6.75394 0
401 1 Ar 20.2618 6.75394 3.37697
402 1 Ar 20.2618 6.75394 6.75394
403 1 Ar 20.2618 6.75394 10.1309
404 1 Ar 20.2618 6.75394 13.5079
405 1 Ar 20.2618 6.75394 16.8848
406 1 Ar 20.2618 6.75394 20.2618
407 1 Ar 20.2618 6.75394 23.6388
408 1 Ar 20.2618 10.1309 0
409 1 Ar 20.2618 10.1309 3.37697
410 1 Ar 20.2618 10.1309 6.75394
411 1 Ar 20.2618 10.1309 10.1309
412 1 Ar 20.2618 10.1309 13.5079
413 1 Ar 20.2618 10.1309 16.8848
414 1 Ar 20.2618 10.1309 20.2618
415 1 Ar 20.2618 10.1309 23.6388
416 1 Ar 20.2618 13.5079 0
417 1 Ar 20.2618 13.5079 3.37697
418 1 Ar 20.2618 13.5079 6.75394
419 1 Ar 20.2618 13.5079 10.1309
420 1 Ar 20.2618 13.5079 13.5079
421 1 Ar 20.2618 13.5079 16.8848
422 1 Ar 20.2618 13.5079 20.2618
423 1 Ar 20.2618 13.5079 23.6388
424 1 Ar 20.2618 16.8848 0
425 1 Ar 20.2618 16.8848 3.37697
426 1 Ar 20.2618 16.8848 6.75394
427 1 Ar 20.2618 16.8848 10.1309
428 1 Ar 20.2618 16.8848 13.5079
429 1 Ar 20.2618 16.8848 16.8848
430 1 Ar 20.2618 16.8848 20.2618
431 1 Ar 20.2618 16.8848 23.6388
432 1 Ar 20.2618 20.2618 0
433 1 Ar 20.2618 20.2618 3.37697
434 1 Ar 20.2618 20.2618 6.75394
435 1 Ar 20.2618 20.2618 10.1309
436 1 Ar 20.2618 20.2618 13.5079
437 1 Ar 20.2618 20.2618 16.8848
438 1 Ar 20.2618 20.2618 20.2618
439 1 Ar 20.2618 20.2618 23.6388
440 1 Ar 20.2618 23.6388 0
441 1 Ar 20.2618 23.6388 3.37697
442 1 Ar 20.2618 23.6388 6.75394
443 1 Ar 20.2618 23.6388 10.1309
444 1 Ar 20.2618 23.6388 13.5079
445 1 Ar 20.2618 23.6388 16.8848
446 1 Ar 20.2618 23.6388 20.2618
447 1 Ar 20.2618 23.6388 23.6388
448 1 Ar 23.6388 0 0
449 1 Ar 23.6388 0 3.37697
450 1 Ar 23.6388 0 6.75394
451 1 Ar 23.6388 0 10.1309
452 1 Ar 23.6388 0 13.5079
453 1 Ar 23.6388 0 16.8848
454 1 Ar 23.6388 0 20.2618
455 1 Ar 23.6388 0 23.6388
456 1 Ar 23.6388 3.37697 0
457 1 Ar 23.6388 3.37697 3.37697
458 1 Ar 23.6388 3.37697 6.75394
459 1 Ar 23.6388 3.37697 10.1309
460 1 Ar 23.6388 3.37697 13.5079
461 1 Ar 23.6388 3.37697 16.8848
462 1 Ar 23.6388 3.37697 20.2618
463 1 Ar 23.6388 3.37697 23.6388
464 1 Ar 23.6388 6.75394 0
465 1 Ar 23.6388 6.75394 3.37697
466 1 Ar 23.6388 6.75394 6.75394
467 1 Ar 23.6388 6.75394 10.1309
468 1 Ar 23.6388 6.75394 13.5079
469 1 Ar 23.6388 6.75394 16.8848
470 1 Ar 23.6388 6.75394 20.2618
471 1 Ar 23.6388 6.75394 23.6388
472 1 Ar 23.6388 10.1309 0
473 1 Ar 23.6388 10.1309 3.37697
474 1 Ar 23.6388 10.1309 6.75394
475 1 Ar 23.6388 10.1309 10.1309
476 1 Ar 23.6388 10.1309 13.5079
477 1 Ar 23.6388 10.1309 16.8848
478 1 Ar 23.6388 10.1309 20.2618
479 1 Ar 23.6388 10.1309 23.6388
480 1 Ar 23.6388 13.5079 0
481 1 Ar 23.6388 13.5079 3.37697
482 1 Ar 23.6388 13.5079 6.75394
483 1 Ar 23.6388 13.5079 10.1309
484 1 Ar 23.6388 13.5079 13.5079
485 1 Ar 23.6388 13.5079 16.8848
486 1 Ar 23.6388 13.5079 20.2618
487 1 Ar 23.6388 13.5079 23.6388
488 1 Ar 23.6388 16.8848 0
489 1 Ar 23.6388 16.8848 3.37697
490 1 Ar 23.6388 16.8848 6.75394
491 1 Ar 23.6388 16.8848 10.1309
492 1 Ar 23.6388 16.8848 13.5079
493 1 Ar 23.6388 16.8848 16.8848
494 1 Ar 23.6388 16.8848 20.2618
495 1 Ar 23.6388 16.8848 23.6388
496 1 Ar 23.6388 20.2618 0
497 1 Ar 23.6388 20.2618 3.37697
498 1 Ar 23.6388 20.2618 6.75394
499 1 Ar 23.6388 20.2618 10.1309
ITEM: TIMESTEP
19999
ITEM: NUMBER OF ATOMS
500
ITEM: BOX BOUNDS pp pp pp
0 30.3927
0 30.3927
0 30.3927
ITEM: ATOMS id type element xu yu zu
0 1 Ar 28.4352 29.5188 30.2256
1 1 Ar 29.8587 29.5376 3.07759
2 1 Ar 30.211 29.5522 6.69379
3 1 Ar 28.2207 0.341482 9.72156
4 1 Ar 30.0433 29.6187 12.8888
5 1 Ar 30.2852 28.9387 16.836
6 1 Ar 0.400855 30.2021 21.3217
7 1 Ar 28.8109 0.0819868 25.0812
8 1 Ar 0.00727178 2.44233 30.0079
9 1 Ar 29.4808 2.70522 3.23153
10 1 Ar 27.999 3.21735 6.15948
11 1 Ar 0.155764 3.37552 8.92853
12 1 Ar 0.659689 3.03981 12.9409
13 1 Ar 29.4737 2.88706 16.7087
14 1 Ar 0.0475476 3.3713 20.6154
15 1 Ar 29.3971 3.28465 24.0612
16 1 Ar 29.4443 7.1 0.554775
17 1 Ar 0.108764 6.71639 3.59881
18 1 Ar 29.3865 6.35038 6.77086
19 1 Ar 29.5322 6.43712 10.2861
20 1 Ar 29.5905 6.41214 13.791
21 1 Ar 0.405434 6.30127 17.0228
22 1 Ar 29.6542 6.81973 20.1788
23 1 Ar 29.6467 6.90618 23.8804
24 1 Ar 0.533159 10.308 0.0397504
25 1 Ar 28.0471 10.3302 2.74486
26 1 Ar 29.7112 10.0415 6.38427
27 1 Ar 29.1128 9.69722 9.89144
28 1 Ar 29.4773 10.4625 13.5227
29 1 Ar 30.1707 9.97498 17.2595
30 1 Ar 29.2641 10.2469 20.6574
31 1 Ar 29.1695 10.3278 24.4816
32 1 Ar 30.3354 13.5545 29.1407
33 1 Ar 29.4422 13.5918 2.97142
34 1 Ar 30.2986 13.3821 6.44144
35 1 Ar 29.6022 13.1759 10.1338
36 1 Ar 29.7659 13.7173 13.5856
37 1 Ar 29.9633 13.2969 16.9692
38 1 Ar 29.9365 13.7596 20.4096
39 1 Ar 0.378157 14.0511 23.7739
40 1 Ar 29.9773 16.8881 0.256247
41 1 Ar 30.2266 17.0041 3.59323
42 1 Ar 0.0393015 16.7842 6.73213
43 1 Ar 0.432135 16.1519 9.96396
44 1 Ar 29.7373 17.7091 12.6455
45 1 Ar 28.9444 16.3924 16.0789
46 1 Ar 30.1668 17.5475 19.2693
47 1 Ar 29.5869 17.2863 23.7742
48 1 Ar 30.2679 20.3145 30.2298
49 1 Ar 29.6688 20.5763 3.23905
50 1 Ar 29.5917 20.1393 6.54492
51 1 Ar 0.191644 20.0421 10.1281
52 1 Ar 29.6534 21.0259 13.9143
53 1 Ar 29.7578 20.3509 17.1019
54 1 Ar 30.0191 21.1742 20.3595
55 1 Ar 30.3687 20.8195 23.7825
56 1 Ar 29.0943 24.2171 30.1109
57 1 Ar 0.832323 23.4922 3.00853
58 1 Ar 30.0086 23.6053 6.50655
59 1 Ar 30.0591 23.2919 10.5413
60 1 Ar 28.5683 25.6276 12.8493
61 1 Ar 29.3647 24.4603 16.5632
62 1 Ar 29.8187 24.4998 20.4614
63 1 Ar 0.253236 24.4246 24.1962
64 1 Ar 2.58754 30.1802 28.8073
65 1 Ar 3.70803 29.7262 2.2235
66 1 Ar 3.43291 28.8637 6.05645
67 1 Ar 4.79424 27.8695 9.78179
68 1 Ar 2.86068 29.6572 13.0231
69 1 Ar 3.21706 30.1694 17.7468
70 1 Ar 3.76764 28.8608 21.0521
71 1 Ar 2.03353 30.135 24.9458
72 1 Ar 3.45147 2.75678 30.0461
73 1 Ar 2.67145 3.09654 2.84411
74 1 Ar 3.5024 1.99305 6.47247
75 1 Ar 3.5741 2.70234 9.90703
76 1 Ar 3.63328 2.60166 14.0892
77 1 Ar 2.84268 3.83644 17.4075
78 1 Ar 3.42188 1.96166 21.0385
79 1 Ar 3.26879 3.62443 24.7253
80 1 Ar 3.30174 6.17081 29.005
81 1 Ar 3.58603 6.39452 2.39606
82 1 Ar 2.93359 6.07287 5.94912
83 1 Ar 2.46886 6.01602 10.0866
84 1 Ar 2.94845 7.31679 13.2455
85 1 Ar 3.81136 6.9179 16.683
86 1 Ar 3.47595 5.83758 20.2417
87 1 Ar 2.92517 6.77538 23.6195
88 1 Ar 3.77085 9.28457 30.0641
89 1 Ar 3.29014 10.1262 3.18513
90 1 Ar 2.75677 9.59609 6.9226
91 1 Ar 2.91698 9.95387 10.9648
92 1 Ar 3.67461 10.6013 14.8348
93 1 Ar 3.88952 10.3644 17.8811
94 1 Ar 2.66474 9.1454 21.1136
95 1 Ar 2.26753 10.2428 24.7271
96 1 Ar 3.42995 13.26 29.502
97 1 Ar 2.67595 13.6385 3.39968
98 1 Ar 3.41312 12.943 7.08096
99 1 Ar 2.76497 13.4771 10.6897
100 1 Ar 3.19322 13.6821 14.0875
101 1 Ar 3.45006 13.5955 17.6056
102 1 Ar 3.02036 12.7126 21.0786
103 1 Ar 3.2136 13.29 25.8633
104 1 Ar 3.32708 16.6836 29.5606
105 1 Ar 2.76997 17.081 2.21835
106 1 Ar 3.38694 16.9605 6.62313
107 1 Ar 3.99992 16.7932 9.88166
108 1 Ar 3.57365 17.4741 13.3919
109 1 Ar 2.66789 16.7206 16.4816
110 1 Ar 3.28633 15.8432 20.0016
111 1 Ar 3.19759 16.5434 23.7487
112 1 Ar 4.07075 20.4561 29.8971
113 1 Ar 3.30716 20.4332 2.89485
114 1 Ar 3.01473 20.5023 6.54636
115 1 Ar 3.53109 20.1515 9.93959
116 1 Ar 3.06327 20.8235 13.3849
117 1 Ar 2.85921 20.1025 17.4331
118 1 Ar 2.89138 19.6501 21.0437
119 1 Ar 2.74943 20.0348 24.803
120 1 Ar 2.97975 24.0063 29.988
121 1 Ar 1.84831 26.9006 2.78111
122 1 Ar 3.45523 23.6317 5.5537
123 1 Ar 3.11425 23.8076 9.18921
124 1 Ar 2.63711 24.8386 13.4322
125 1 Ar 3.25443 24.3849 17.1153
126 1 Ar 2.74723 23.2782 21.0591
127 1 Ar 3.51598 24.122 24.3953
128 1 Ar 6.33327 29.5854 29.9078
129 1 Ar 7.15731 29.9442 3.58864
130 1 Ar 6.60544 0.308332 6.82392
131 1 Ar 7.46466 0.0196061 9.99274
132 1 Ar 6.07163 0.387363 13.723
133 1 Ar 7.32219 29.139 17.287
134 1 Ar 6.96812 0.17877 20.4199
135 1 Ar 5.93626 29.5307 23.8445
136 1 Ar 7.12281 2.65972 0.664161
137 1 Ar 5.9836 2.89464 3.81371
138 1 Ar 6.51055 3.64452 7.17374
139 1 Ar 6.68367 3.13183 11.1832
140 1 Ar 7.26023 3.77334 14.4473
141 1 Ar 6.28236 3.17657 18.0551
142 1 Ar 6.59779 3.59719 21.7327
143 1 Ar 7.10943 3.39019 24.837
144 1 Ar 6.45862 6.45245 30.2424
145 1 Ar 7.02622 6.10257 3.45307
146 1 Ar 6.74539 7.001 6.71363
147 1 Ar 6.3866 6.20236 10.3506
148 1 Ar 6.20765 6.93002 13.9826
149 1 Ar 7.10725 6.47657 17.3482
150 1 Ar 7.07907 7.00194 20.9164
151 1 Ar 6.701 7.14056 25.0469
152 1 Ar 7.08262 10.2854 0.339839
153 1 Ar 6.94403 9.37343 3.70251
154 1 Ar 5.98597 10.6325 7.25566
155 1 Ar 6.72074 9.66586 10.4257
156 1 Ar 7.0105 10.3796 13.63
157 1 Ar 7.60354 10.0972 16.9228
158 1 Ar 6.39681 10.1499 20.1864
159 1 Ar 5.38927 10.7528 23.3208
160 1 Ar 6.91338 13.6824 30.2762
161 1 Ar 5.94915 14.2654 3.49585
162 1 Ar 6.92644 14.075 6.97853
163 1 Ar 6.62387 13.1558 10.299
164 1 Ar 6.77232 13.7876 13.7015
165 1 Ar 7.07905 13.8413 17.4578
166 1 Ar 6.21099 13.7775 20.6283
167 1 Ar 7.03764 13.4142 24.229
168 1 Ar 6.48252 17.7215 29.4335
169 1 Ar 6.75893 17.4624 2.77612
170 1 Ar 6.71718 17.1709 6.1729
171 1 Ar 7.25111 16.9743 9.70536
172 1 Ar 6.88385 16.9819 13.4657
173 1 Ar 6.62053 16.8914 17.0201
174 1 Ar 6.73628 17.6555 20.2239
175 1 Ar 7.4662 17.151 23.9067
176 1 Ar 7.19851 20.9715 28.9342
177 1 Ar 6.47639 20.9999 2.34966
178 1 Ar 6.77113 21.3576 6.16384
179 1 Ar 6.73153 20.8794 10.1239
180 1 Ar 6.72151 20.3634 13.3606
181 1 Ar 6.47289 20.1447 16.6984
182 1 Ar 5.88867 20.9206 19.9879
183 1 Ar 6.32156 20.1813 23.8779
184 1 Ar 7.08978 24.335 29.9351
185 1 Ar 5.76478 24.5636 3.184
186 1 Ar 6.57152 25.0965 6.81656
187 1 Ar 6.85043 24.6157 10.2579
188 1 Ar 6.04156 23.7858 13.4339
189 1 Ar 6.79611 24.3079 17.2238
190 1 Ar 6.89171 24.0887 22.3549
191 1 Ar 7.02212 23.4306 25.5164
192 1 Ar 9.95711 29.3945 28.0045
193 1 Ar 10.2466 30.0299 2.31849
194 1 Ar 9.7168 28.9323 6.00846
195 1 Ar 10.9266 29.7157 9.92025
196 1 Ar 9.56042 29.1039 13.5854
197 1 Ar 10.6584 0.115812 16.8056
198 1 Ar 10.2384 29.552 20.5335
199 1 Ar 9.33989 29.4379 24.4485
200 1 Ar 10.2753 2.66219 29.9311
201 1 Ar 9.59101 3.6073 3.45484
202 1 Ar 10.0573 2.27451 6.96019
203 1 Ar 10.3934 3.44182 10.2727
204 1 Ar 10.7512 2.28129 13.6021
205 1 Ar 9.72987 3.1907 16.6857
206 1 Ar 10.1342 2.77012 20.3031
207 1 Ar 10.2544 2.57516 23.9791
208 1 Ar 10.0127 6.49421 29.493
209 1 Ar 10.1407 7.10322 3.06592
210 1 Ar 10.4203 6.17473 6.46423
211 1 Ar 9.823 7.31807 9.50999
212 1 Ar 9.43221 6.74728 12.934
213 1 Ar 10.3 7.01184 16.4653
214 1 Ar 10.3408 6.29215 19.7401
215 1 Ar 10.2652 6.30198 23.7402
216 1 Ar 10.5415 10.0809 29.6693
217 1 Ar 10.1538 10.4608 2.59067
218 1 Ar 9.81949 9.46894 5.90227
219 1 Ar 9.57279 10.8039 9.45174
220 1 Ar 10.4144 10.2277 13.6972
221 1 Ar 10.8442 10.3215 17.0744
222 1 Ar 9.69553 9.79542 20.4708
223 1 Ar 9.17816 9.90324 24.0852
224 1 Ar 10.0832 13.4339 28.009
225 1 Ar 9.56874 13.79 3.16376
226 1 Ar 10.2783 13.4005 6.46889
227 1 Ar 10.036 14.0958 9.8291
228 1 Ar 10.2325 13.5237 13.3827
229 1 Ar 10.3792 13.7489 16.8018
230 1 Ar 9.77981 14.0691 20.3529
231 1 Ar 10.6459 13.1916 24.6116
232 1 Ar 9.32283 16.232 0.380223
233 1 Ar 10.4378 17.0561 3.71997
234 1 Ar 10.125 16.8444 7.071
235 1 Ar 10.9043 17.1176 10.114
236 1 Ar 10.1509 16.7278 13.3637
237 1 Ar 10.2805 17.7703 16.703
238 1 Ar 10.3445 17.257 20.0319
239 1 Ar 9.88657 16.9281 26.4969
240 1 Ar 10.1428 19.8964 30.134
241 1 Ar 9.8086 20.4357 3.35941
242 1 Ar 10.2026 21.2098 6.99036
243 1 Ar 9.91931 20.2665 10.5812
244 1 Ar 10.2863 20.2205 13.79
245 1 Ar 9.8746 21.4208 16.8923
246 1 Ar 9.37122 20.7112 20.7198
247 1 Ar 9.78029 21.0178 24.5116
248 1 Ar 10.2333 23.9775 28.8156
249 1 Ar 9.40665 24.6198 2.68734
250 1 Ar 10.0052 24.564 6.33281
251 1 Ar 10.1578 23.5967 9.54595
252 1 Ar 9.87833 24.7611 13.0136
253 1 Ar 10.3656 24.7355 16.7853
254 1 Ar 9.82641 23.9337 20.361
255 1 Ar 10.2698 24.6536 23.9086
256 1 Ar 13.2419 30.1667 30.0338
257 1 Ar 13.5009 29.149 2.86935
258 1 Ar 13.1369 29.7638 7.20164
259 1 Ar 14.2525 29.8882 11.057
260 1 Ar 13.0075 30.0323 14.2375
261 1 Ar 13.744 29.007 17.7158
262 1 Ar 13.631 0.322305 20.8007
263 1 Ar 14.1589 0.645349 24.0725
264 1 Ar 13.9104 3.29585 30.222
265 1 Ar 12.8302 2.6832 3.00807
266 1 Ar 13.6502 3.1988 6.74043
267 1 Ar 13.807 3.68225 10.588
268 1 Ar 14.3035 3.06967 13.7638
269 1 Ar 13.2126 3.73909 16.8351
270 1 Ar 13.7447 3.58334 20.1506
271 1 Ar 13.8014 4.10917 24.5666
272 1 Ar 13.5722 6.40809 30.2097
273 1 Ar 13.5859 6.62705 3.92931
274 1 Ar 14.4793 6.76034 7.08953
275 1 Ar 13.0819 7.03832 10.2351
276 1 Ar 13.4435 6.42791 13.4885
277 1 Ar 13.536 6.87752 17.2202
278 1 Ar 13.7095 7.2379 20.3988
279 1 Ar 13.4798 7.70234 24.1877
280 1 Ar 13.9972 9.62698 28.9267
281 1 Ar 13.5484 9.55439 2.34755
282 1 Ar 13.2144 9.82024 5.90402
283 1 Ar 12.9958 10.4803 9.90034
284 1 Ar 13.5902 9.71253 13.2946
285 1 Ar 14.0647 10.2046 16.5916
286 1 Ar 13.5837 10.3383 19.9883
287 1 Ar 13.4598 11.1363 23.4232
288 1 Ar 12.868 13.191 30.0918
289 1 Ar 13.2397 13.0196 4.17438
290 1 Ar 14.559 13.2252 7.26452
291 1 Ar 13.0721 13.99 10.7504
292 1 Ar 13.4212 12.9845 14.2684
293 1 Ar 13.6741 13.3108 17.5539
294 1 Ar 13.1874 13.8414 21.3282
295 1 Ar 13.3456 14.4841 25.8566
296 1 Ar 13.7492 16.1198 29.4547
297 1 Ar 13.9187 16.1766 2.41151
298 1 Ar 13.8629 17.0099 5.68496
299 1 Ar 14.013 17.0569 9.47047
300 1 Ar 13.4335 16.4521 13.1527
301 1 Ar 13.5 16.396 16.7099
302 1 Ar 13.4586 17.3732 20.373
303 1 Ar 13.4788 17.293 23.7984
304 1 Ar 13.6058 20.176 0.0426625
305 1 Ar 13.8656 20.0367 3.5461
306 1 Ar 13.4044 19.8221 7.44673
307 1 Ar 12.8798 21.2492 10.5957
308 1 Ar 13.6834 19.8304 13.7106
309 1 Ar 12.7123 19.9726 17.6556
310 1 Ar 14.2188 20.6733 21.32
311 1 Ar 13.8115 20.5616 24.9738
312 1 Ar 13.7105 23.5504 29.3115
313 1 Ar 13.0364 24.0739 3.41409
314 1 Ar 13.7273 23.7558 6.62433
315 1 Ar 13.1581 25.1051 10.2488
316 1 Ar 13.938 23.291 13.5171
317 1 Ar 13.6881 24.5425 16.6505
318 1 Ar 13.324 25.0583 20.3282
319 1 Ar 13.3228 24.3829 24.6104
320 1 Ar 16.81 29.8884 30.1642
321 1 Ar 17.502 30.2633 3.92591
322 1 Ar 16.6384 29.3564 7.24377
323 1 Ar 17.285 28.3361 10.9418
324 1 Ar 16.6416 0.376158 13.309
325 1 Ar 17.7374 28.9825 16.6032
326 1 Ar 16.7533 29.8925 19.6477
327 1 Ar 18.0604 29.0947 23.344
328 1 Ar 17.4231 2.92177 29.8261
329 1 Ar 17.3088 3.30165 3.03996
330 1 Ar 17.0741 2.95346 6.4096
331 1 Ar 17.5539 2.61649 10.2646
332 1 Ar 17.5491 3.80763 13.4133
333 1 Ar 16.5434 2.529 16.7655
334 1 Ar 17.2518 2.85891 20.9401
335 1 Ar 17.1264 3.3938 24.4122
336 1 Ar 16.9509 7.17568 29.9639
337 1 Ar 17.107 6.48852 2.95801
338 1 Ar 17.7166 6.82608 6.29155
339 1 Ar 16.5873 6.37683 9.7133
340 1 Ar 16.9991 7.49342 12.9333
341 1 Ar 17.097 6.44693 16.0303
342 1 Ar 17.1589 6.8167 19.9195
343 1 Ar 16.8739 6.9081 23.4871
344 1 Ar 17.09 10.4792 0.439464
345 1 Ar 16.9642 9.69258 3.65795
346 1 Ar 16.531 10.0745 6.96929
347 1 Ar 16.6793 9.71947 10.355
348 1 Ar 16.5098 10.6808 14.3596
349 1 Ar 17.2426 9.53448 17.6689
350 1 Ar 16.9288 9.95276 21.2499
351 1 Ar 16.3301 10.5115 25.0037
352 1 Ar 17.4854 13.8711 0.24158
353 1 Ar 17.0124 12.9824 4.05079
354 1 Ar 18.1785 13.1078 7.69329
355 1 Ar 16.1351 13.1546 10.599
356 1 Ar 17.8358 13.5495 13.7729
357 1 Ar 16.9361 12.7476 17.0579
358 1 Ar 17.2476 13.4242 20.6385
359 1 Ar 16.3027 14.1304 24.0917
360 1 Ar 16.4873 17.9678 29.9979
361 1 Ar 17.3591 16.348 2.51642
362 1 Ar 16.9392 16.4046 6.55129
363 1 Ar 17.4631 16.0492 9.96677
364 1 Ar 16.6881 16.9713 14.5924
365 1 Ar 17.5526 16.2377 17.6028
366 1 Ar 16.8195 17.2678 21.4955
367 1 Ar 17.4619 17.3772 25.2123
368 1 Ar 17.0763 20.9732 29.0164
369 1 Ar 17.1919 20.0583 2.61666
370 1 Ar 16.6693 20.4 6.04645
371 1 Ar 15.9876 19.5451 10.477
372 1 Ar 17.1765 20.3253 13.4458
373 1 Ar 16.4967 19.5265 16.7444
374 1 Ar 17.7976 21.3421 20.1332
375 1 Ar 17.3154 20.801 23.9977
376 1 Ar 16.8316 24.4286 0.219985
377 1 Ar 16.6641 23.7689 3.82912
378 1 Ar 17.2965 23.499 7.08111
379 1 Ar 16.1992 23.2413 10.0956
380 1 Ar 17.5111 24.8675 13.0926
381 1 Ar 17.858 23.3501 16.6579
382 1 Ar 16.7488 25.7187 19.3732
383 1 Ar 16.4321 24.6326 23.0262
384 1 Ar 20.201 28.805 29.595
385 1 Ar 20.4954 29.8318 2.15465
386 1 Ar 20.097 29.3614 5.83654
387 1 Ar 20.7986 29.039 9.64404
388 1 Ar 19.8842 30.3027 12.8068
389 1 Ar 21.6419 29.7783 16.0807
390 1 Ar 20.734 30.171 19.8539
391 1 Ar 21.81 30.1735 23.7658
392 1 Ar 20.8187 1.95115 29.3865
393 1 Ar 20.7235 3.061 3.13594
394 1 Ar 21.1692 2.17726 6.46939
395 1 Ar 20.9782 2.74905 10.0188
396 1 Ar 20.9795 2.90896 13.8743
397 1 Ar 20.4452 2.56932 17.3318
398 1 Ar 20.7693 3.48493 20.3885
399 1 Ar 20.3378 2.81717 23.9585
400 1 Ar 19.9535 5.22733 30.1816
401 1 Ar 20.4004 7.06914 2.87545
402 1 Ar 20.9237 6.11072 6.09228
403 1 Ar 20.0946 6.48016 10.122
404 1 Ar 20.2472 6.26302 13.4768
405 1 Ar 20.5684 6.77197 16.8886
406 1 Ar 20.5029 7.09828 20.7984
407 1 Ar 20.0666 6.50135 24.2768
408 1 Ar 19.8547 9.03996 30.1097
409 1 Ar 20.3607 10.3762 3.40514
410 1 Ar 19.8851 9.88069 6.97897
411 1 Ar 20.3348 10.0014 10.1862
412 1 Ar 20.2009 10.0443 13.7072
413 1 Ar 20.4007 10.2593 17.0632
414 1 Ar 20.8335 10.6039 20.6922
415 1 Ar 21.1261 9.82151 24.5938
416 1 Ar 21.6832 13.0556 29.8766
417 1 Ar 20.3319 13.8962 2.62119
418 1 Ar 21.0186 13.0185 5.83329
419 1 Ar 20.5485 14.1503 9.9882
420 1 Ar 21.5317 13.6439 13.339
421 1 Ar 20.4421 14.087 16.7842
422 1 Ar 21.8604 13.6761 20.2432
423 1 Ar 19.5293 13.3835 23.8226
424 1 Ar 20.0123 16.1448 29.9022
425 1 Ar 20.8364 17.2404 3.4311
426 1 Ar 20.3576 16.1544 6.95008
427 1 Ar 21.2058 17.9914 9.75654
428 1 Ar 19.9526 16.7066 13.0535
429 1 Ar 20.8052 17.3922 16.7202
430 1 Ar 20.2333 16.7407 19.8454
431 1 Ar 20.1427 16.6987 23.1891
432 1 Ar 20.9904 20.077 29.3405
433 1 Ar 20.4458 21.2699 3.63336
434 1 Ar 19.9485 20.1995 7.12922
435 1 Ar 19.1834 20.5754 10.2878
436 1 Ar 20.435 20.0592 13.2981
437 1 Ar 20.7455 20.7039 16.7056
438 1 Ar 21.2689 19.8922 20.9037
439 1 Ar 20.4503 20.1833 24.5759
440 1 Ar 20.6171 24.3148 29.2273
441 1 Ar 20.218 25.5052 2.91925
442 1 Ar 20.7954 23.4514 6.09624
443 1 Ar 21.4438 25.6119 9.718
444 1 Ar 21.1677 23.3039 12.2711