ITEM: TIMESTEP
-1
ITEM: NUMBER OF ATOMS
500
ITEM: BOX BOUNDS pp pp pp
0 58.1392
0 58.1392
0 58.1392
ITEM: ATOMS id type element xu yu zu
0 1 Ar 0 0 0
1 1 Ar 0 0 6.45991
2 1 Ar 0 0 12.9198
3 1 Ar 0 0 19.3797
4 1 Ar 0 0 25.8396
5 1 Ar 0 0 32.2995
6 1 Ar 0 0 38.7595
7 1 Ar 0 0 45.2194
8 1 Ar 0 6.45991 0
9 1 Ar 0 6.45991 6.45991
10 1 Ar 0 6.45991 12.9198
11 1 Ar 0 6.45991 19.3797
12 1 Ar 0 6.45991 25.8396
13 1 Ar 0 6.45991 32.2995
14 1 Ar 0 6.45991 38.7595
15 1 Ar 0 6.45991 45.2194
16 1 Ar 0 12.9198 0
17 1 Ar 0 12.9198 6.45991
18 1 Ar 0 12.9198 12.9198
19 1 Ar 0 12.9198 19.3797
20 1 Ar 0 12.9198 25.8396
21 1 Ar 0 12.9198 32.2995
22 1 Ar 0 12.9198 38.7595
23 1 Ar 0 12.9198 45.2194
24 1 Ar 0 19.3797 0
25 1 Ar 0 19.3797 6.45991
26 1 Ar 0 19.3797 12.9198
27 1 Ar 0 19.3797 19.3797
28 1 Ar 0 19.3797 25.8396
29 1 Ar 0 19.3797 32.2995
30 1 Ar 0 19.3797 38.7595
31 1 Ar 0 19.3797 45.2194
32 1 Ar 0 25.8396 0
33 1 Ar 0 25.8396 6.45991
34 1 Ar 0 25.8396 12.9198
35 1 Ar 0 25.8396 19.3797
36 1 Ar 0 25.8396 25.8396
37 1 Ar 0 25.8396 32.2995
38 1 Ar 0 25.8396 38.7595
39 1 Ar 0 25.8396 45.2194
40 1 Ar 0 32.2995 0
41 1 Ar 0 32.2995 6.45991
42 1 Ar 0 32.2995 12.9198
43 1 Ar 0 32.2995 19.3797
44 1 Ar 0 32.2995 25.8396
45 1 Ar 0 32.2995 32.2995
46 1 Ar 0 32.2995 38.7595
47 1 Ar 0 32.2995 45.2194
48 1 Ar 0 38.7595 0
49 1 Ar 0 38.7595 6.45991
50 1 Ar 0 38.7595 12.9198
51 1 Ar 0 38.7595 19.3797
52 1 Ar 0 38.7595 25.8396
53 1 Ar 0 38.7595 32.2995
54 1 Ar 0 38.7595 38.7595
55 1 Ar 0 38.7595 45.2194
56 1 Ar 0 45.2194 0
57 1 Ar 0 45.2194 6.45991
58 1 Ar 0 45.2194 12.9198
59 1 Ar 0 45.2194 19.3797
60 1 Ar 0 45.2194 25.8396
61 1 Ar 0 45.2194 32.2995
62 1 Ar 0 45.2194 38.7595
63 1 Ar 0 45.2194 45.2194
64 1 Ar 6.45991 0 0
65 1 Ar 6.45991 0 6.45991
66 1 Ar 6.45991 0 12.9198
67 1 Ar 6.45991 0 19.3797
68 1 Ar 6.45991 0 25.8396
69 1 Ar 6.45991 0 32.2995
70 1 Ar 6.45991 0 38.7595
71 1 Ar 6.45991 0 45.2194
72 1 Ar 6.45991 6.45991 0
73 1 Ar 6.45991 6.45991 6.45991
74 1 Ar 6.45991 6.45991 12.9198
75 1 Ar 6.45991 6.45991 19.3797
76 1 Ar 6.45991 6.45991 25.8396
77 1 Ar 6.45991 6.45991 32.2995
78 1 Ar 6.45991 6.45991 38.7595
79 1 Ar 6.45991 6.45991 45.2194
80 1 Ar 6.45991 12.9198 0
81 1 Ar 6.45991 12.9198 6.45991
82 1 Ar 6.45991 12.9198 12.9198
83 1 Ar 6.45991 12.9198 19.3797
84 1 Ar 6.45991 12.9198 25.8396
85 1 Ar 6.45991 12.9198 32.2995
86 1 Ar 6.45991 12.9198 38.7595
87 1 Ar 6.45991 12.9198 45.2194
88 1 Ar 6.45991 19.3797 0
89 1 Ar 6.45991 19.3797 6.45991
90 1 Ar 6.45991 19.3797 12.9198
91 1 Ar 6.45991 19.3797 19.3797
92 1 Ar 6.45991 19.3797 25.8396
93 1 Ar 6.45991 19.3797 32.2995
94 1 Ar 6.45991 19.3797 38.7595
95 1 Ar 6.45991 19.3797 45.2194
96 1 Ar 6.45991 25.8396 0
97 1 Ar 6.45991 25.8396 6.45991
98 1 Ar 6.45991 25.8396 12.9198
99 1 Ar 6.45991 25.8396 19.3797
100 1 Ar 6.45991 25.8396 25.8396
101 1 Ar 6.45991 25.8396 32.2995
102 1 Ar 6.45991 25.8396 38.7595
103 1 Ar 6.45991 25.8396 45.2194
104 1 Ar 6.45991 32.2995 0
105 1 Ar 6.45991 32.2995 6.45991
106 1 Ar 6.45991 32.2995 12.9198
107 1 Ar 6.45991 32.2995 19.3797
108 1 Ar 6.45991 32.2995 25.8396
109 1 Ar 6.45991 32.2995 32.2995
110 1 Ar 6.45991 32.2995 38.7595
111 1 Ar 6.45991 32.2995 45.2194
112 1 Ar 6.45991 38.7595 0
113 1 Ar 6.45991 38.7595 6.45991
114 1 Ar 6.45991 38.7595 12.9198
115 1 Ar 6.45991 38.7595 19.3797
116 1 Ar 6.45991 38.7595 25.8396
117 1 Ar 6.45991 38.7595 32.2995
118 1 Ar 6.45991 38.7595 38.7595
119 1 Ar 6.45991 38.7595 45.2194
120 1 Ar 6.45991 45.2194 0
121 1 Ar 6.45991 45.2194 6.45991
122 1 Ar 6.45991 45.2194 12.9198
123 1 Ar 6.45991 45.2194 19.3797
124 1 Ar 6.45991 45.2194 25.8396
125 1 Ar 6.45991 45.2194 32.2995
126 1 Ar 6.45991 45.2194 38.7595
127 1 Ar 6.45991 45.2194 45.2194
128 1 Ar 12.9198 0 0
129 1 Ar 12.9198 0 6.45991
130 1 Ar 12.9198 0 12.9198
131 1 Ar 12.9198 0 19.3797
132 1 Ar 12.9198 0 25.8396
133 1 Ar 12.9198 0 32.2995
134 1 Ar 12.9198 0 38.7595
135 1 Ar 12.9198 0 45.2194
136 1 Ar 12.9198 6.45991 0
137 1 Ar 12.9198 6.45991 6.45991
138 1 Ar 12.9198 6.45991 12.9198
139 1 Ar 12.9198 6.45991 19.3797
140 1 Ar 12.9198 6.45991 25.8396
141 1 Ar 12.9198 6.45991 32.2995
142 1 Ar 12.9198 6.45991 38.7595
143 1 Ar 12.9198 6.45991 45.2194
144 1 Ar 12.9198 12.9198 0
145 1 Ar 12.9198 12.9198 6.45991
146 1 Ar 12.9198 12.9198 12.9198
147 1 Ar 12.9198 12.9198 19.3797
148 1 Ar 12.9198 12.9198 25.8396
149 1 Ar 12.9198 12.9198 32.2995
150 1 Ar 12.9198 12.9198 38.7595
151 1 Ar 12.9198 12.9198 45.2194
152 1 Ar 12.9198 19.3797 0
153 1 Ar 12.9198 19.3797 6.45991
154 1 Ar 12.9198 19.3797 12.9198
155 1 Ar 12.9198 19.3797 19.3797
156 1 Ar 12.9198 19.3797 25.8396
157 1 Ar 12.9198 19.3797 32.2995
158 1 Ar 12.9198 19.3797 38.7595
159 1 Ar 12.9198 19.3797 45.2194
160 1 Ar 12.9198 25.8396 0
161 1 Ar 12.9198 25.8396 6.45991
162 1 Ar 12.9198 25.8396 12.9198
163 1 Ar 12.9198 25.8396 19.3797
164 1 Ar 12.9198 25.8396 25.8396
165 1 Ar 12.9198 25.8396 32.2995
166 1 Ar 12.9198 25.8396 38.7595
167 1 Ar 12.9198 25.8396 45.2194
168 1 Ar 12.9198 32.2995 0
169 1 Ar 12.9198 32.2995 6.45991
170 1 Ar 12.9198 32.2995 12.9198
171 1 Ar 12.9198 32.2995 19.3797
172 1 Ar 12.9198 32.2995 25.8396
173 1 Ar 12.9198 32.2995 32.2995
174 1 Ar 12.9198 32.2995 38.7595
175 1 Ar 12.9198 32.2995 45.2194
176 1 Ar 12.9198 38.7595 0
177 1 Ar 12.9198 38.7595 6.45991
178 1 Ar 12.9198 38.7595 12.9198
179 1 Ar 12.9198 38.7595 19.3797
180 1 Ar 12.9198 38.7595 25.8396
181 1 Ar 12.9198 38.7595 32.2995
182 1 Ar 12.9198 38.7595 38.7595
183 1 Ar 12.9198 38.7595 45.2194
184 1 Ar 12.9198 45.2194 0
185 1 Ar 12.9198 45.2194 6.45991
186 1 Ar 12.9198 45.2194 12.9198
187 1 Ar 12.9198 45.2194 19.3797
188 1 Ar 12.9198 45.2194 25.8396
189 1 Ar 12.9198 45.2194 32.2995
190 1 Ar 12.9198 45.2194 38.7595
191 1 Ar 12.9198 45.2194 45.2194
192 1 Ar 19.3797 0 0
193 1 Ar 19.3797 0 6.45991
194 1 Ar 19.3797 0 12.9198
195 1 Ar 19.3797 0 19.3797
196 1 Ar 19.3797 0 25.8396
197 1 Ar 19.3797 0 32.2995
198 1 Ar 19.3797 0 38.7595
199 1 Ar 19.3797 0 45.2194
200 1 Ar 19.3797 6.45991 0
201 1 Ar 19.3797 6.45991 6.45991
202 1 Ar 19.3797 6.45991 12.9198
203 1 Ar 19.3797 6.45991 19.3797
204 1 Ar 19.3797 6.45991 25.8396
205 1 Ar 19.3797 6.45991 32.2995
206 1 Ar 19.3797 6.45991 38.7595
207 1 Ar 19.3797 6.45991 45.2194
208 1 Ar 19.3797 12.9198 0
209 1 Ar 19.3797 12.9198 6.45991
210 1 Ar 19.3797 12.9198 12.9198
211 1 Ar 19.3797 12.9198 19.3797
212 1 Ar 19.3797 12.9198 25.8396
213 1 Ar 19.3797 12.9198 32.2995
214 1 Ar 19.3797 12.9198 38.7595
215 1 Ar 19.3797 12.9198 45.2194
216 1 Ar 19.3797 19.3797 0
217 1 Ar 19.3797 19.3797 6.45991
218 1 Ar 19.3797 19.3797 12.9198
219 1 Ar 19.3797 19.3797 19.3797
220 1 Ar 19.3797 19.3797 25.8396
221 1 Ar 19.3797 19.3797 32.2995
222 1 Ar 19.3797 19.3797 38.7595
223 1 Ar 19.3797 19.3797 45.2194
224 1 Ar 19.3797 25.8396 0
225 1 Ar 19.3797 25.8396 6.45991
226 1 Ar 19.3797 25.8396 12.9198
227 1 Ar 19.3797 25.8396 19.3797
228 1 Ar 19.3797 25.8396 25.8396
229 1 Ar 19.3797 25.8396 32.2995
230 1 Ar 19.3797 25.8396 38.7595
231 1 Ar 19.3797 25.8396 45.2194
232 1 Ar 19.3797 32.2995 0
233 1 Ar 19.3797 32.2995 6.45991
234 1 Ar 19.3797 32.2995 12.9198
235 1 Ar 19.3797 32.2995 19.3797
236 1 Ar 19.3797 32.2995 25.8396
237 1 Ar 19.3797 32.2995 32.2995
238 1 Ar 19.3797 32.2995 38.7595
239 1 Ar 19.3797 32.2995 45.2194
240 1 Ar 19.3797 38.7595 0
241 1 Ar 19.3797 38.7595 6.45991
242 1 Ar 19.3797 38.7595 12.9198
243 1 Ar 19.3797 38.7595 19.3797
244 1 Ar 19.3797 38.7595 25.8396
245 1 Ar 19.3797 38.7595 32.2995
246 1 Ar 19.3797 38.7595 38.7595
247 1 Ar 19.3797 38.7595 45.2194
248 1 Ar 19.3797 45.2194 0
249 1 Ar 19.3797 45.2194 6.45991
250 1 Ar 19.3797 45.2194 12.9198
251 1 Ar 19.3797 45.2194 19.3797
252 1 Ar 19.3797 45.2194 25.8396
253 1 Ar 19.3797 45.2194 32.2995
254 1 Ar 19.3797 45.2194 38.7595
255 1 Ar 19.3797 45.2194 45.2194
256 1 Ar 25.8396 0 0
257 1 Ar 25.8396 0 6.45991
258 1 Ar 25.8396 0 12.9198
259 1 Ar 25.8396 0 19.3797
260 1 Ar 25.8396 0 25.8396
261 1 Ar 25.8396 0 32.2995
262 1 Ar 25.8396 0 38.7595
263 1 Ar 25.8396 0 45.2194
264 1 Ar 25.8396 6.45991 0
265 1 Ar 25.8396 6.45991 6.45991
266 1 Ar 25.8396 6.45991 12.9198
267 1 Ar 25.8396 6.45991 19.3797
268 1 Ar 25.8396 6.45991 25.8396
269 1 Ar 25.8396 6.45991 32.2995
270 1 Ar 25.8396 6.45991 38.7595
271 1 Ar 25.8396 6.45991 45.2194
272 1 Ar 25.8396 12.9198 0
273 1 Ar 25.8396 12.9198 6.45991
274 1 Ar 25.8396 12.9198 12.9198
275 1 Ar 25.8396 12.9198 19.3797
276 1 Ar 25.8396 12.9198 25.8396
277 1 Ar 25.8396 12.9198 32.2995
278 1 Ar 25.8396 12.9198 38.7595
279 1 Ar 25.8396 12.9198 45.2194
280 1 Ar 25.8396 19.3797 0
281 1 Ar 25.8396 19.3797 6.45991
282 1 Ar 25.8396 19.3797 12.9198
283 1 Ar 25.8396 19.3797 19.3797
284 1 Ar 25.8396 19.3797 25.8396
285 1 Ar 25.8396 19.3797 32.2995
286 1 Ar 25.8396 19.3797 38.7595
287 1 Ar 25.8396 19.3797 45.2194
288 1 Ar 25.8396 25.8396 0
289 1 Ar 25.8396 25.8396 6.45991
290 1 Ar 25.8396 25.8396 12.9198
291 1 Ar 25.8396 25.8396 19.3797
292 1 Ar 25.8396 25.8396 25.8396
293 1 Ar 25.8396 25.8396 32.2995
294 1 Ar 25.8396 25.8396 38.7595
295 1 Ar 25.8396 25.8396 45.2194
296 1 Ar 25.8396 32.2995 0
297 1 Ar 25.8396 32.2995 6.45991
298 1 Ar 25.8396 32.2995 12.9198
299 1 Ar 25.8396 32.2995 19.3797
300 1 Ar 25.8396 32.2995 25.8396
301 1 Ar 25.8396 32.2995 32.2995
302 1 Ar 25.8396 32.2995 38.7595
303 1 Ar 25.8396 32.2995 45.2194
304 1 Ar 25.8396 38.7595 0
305 1 Ar 25.8396 38.7595 6.45991
306 1 Ar 25.8396 38.7595 12.9198
307 1 Ar 25.8396 38.7595 19.3797
308 1 Ar 25.8396 38.7595 25.8396
309 1 Ar 25.8396 38.7595 32.2995
310 1 Ar 25.8396 38.7595 38.7595
311 1 Ar 25.8396 38.7595 45.2194
312 1 Ar 25.8396 45.2194 0
313 1 Ar 25.8396 45.2194 6.45991
314 1 Ar 25.8396 45.2194 12.9198
315 1 Ar 25.8396 45.2194 19.3797
316 1 Ar 25.8396 45.2194 25.8396
317 1 Ar 25.8396 45.2194 32.2995
318 1 Ar 25.8396 45.2194 38.7595
319 1 Ar 25.8396 45.2194 45.2194
320 1 Ar 32.2995 0 0
321 1 Ar 32.2995 0 6.45991
322 1 Ar 32.2995 0 12.9198
323 1 Ar 32.2995 0 19.3797
324 1 Ar 32.2995 0 25.8396
325 1 Ar 32.2995 0 32.2995
326 1 Ar 32.2995 0 38.7595
327 1 Ar 32.2995 0 45.2194
328 1 Ar 32.2995 6.45991 0
329 1 Ar 32.2995 6.45991 6.45991
330 1 Ar 32.2995 6.45991 12.9198
331 1 Ar 32.2995 6.45991 19.3797
332 1 Ar 32.2995 6.45991 25.8396
333 1 Ar 32.2995 6.45991 32.2995
334 1 Ar 32.2995 6.45991 38.7595
335 1 Ar 32.2995 6.45991 45.2194
336 1 Ar 32.2995 12.9198 0
337 1 Ar 32.2995 12.9198 6.45991
338 1 Ar 32.2995 12.9198 12.9198
339 1 Ar 32.2995 12.9198 19.3797
340 1 Ar 32.2995 12.9198 25.8396
341 1 Ar 32.2995 12.9198 32.2995
342 1 Ar 32.2995 12.9198 38.7595
343 1 Ar 32.2995 12.9198 45.2194
344 1 Ar 32.2995 19.3797 0
345 1 Ar 32.2995 19.3797 6.45991
346 1 Ar 32.2995 19.3797 12.9198
347 1 Ar 32.2995 19.3797 19.3797
348 1 Ar 32.2995 19.3797 25.8396
349 1 Ar 32.2995 19.3797 32.2995
350 1 Ar 32.2995 19.3797 38.7595
351 1 Ar 32.2995 19.3797 45.2194
352 1 Ar 32.2995 25.8396 0
353 1 Ar 32.2995 25.8396 6.45991
354 1 Ar 32.2995 25.8396 12.9198
355 1 Ar 32.2995 25.8396 19.3797
356 1 Ar 32.2995 25.8396 25.8396
357 1 Ar 32.2995 25.8396 32.2995
358 1 Ar 32.2995 25.8396 38.7595
359 1 Ar 32.2995 25.8396 45.2194
360 1 Ar 32.2995 32.2995 0
361 1 Ar 32.2995 32.2995 6.45991
362 1 Ar 32.2995 32.2995 12.9198
363 1 Ar 32.2995 32.2995 19.3797
364 1 Ar 32.2995 32.2995 25.8396
365 1 Ar 32.2995 32.2995 32.2995
366 1 Ar 32.2995 32.2995 38.7595
367 1 Ar 32.2995 32.2995 45.2194
368 1 Ar 32.2995 38.7595 0
369 1 Ar 32.2995 38.7595 6.45991
370 1 Ar 32.2995 38.7595 12.9198
371 1 Ar 32.2995 38.7595 19.3797
372 1 Ar 32.2995 38.7595 25.8396
373 1 Ar 32.2995 38.7595 32.2995
374 1 Ar 32.2995 38.7595 38.7595
375 1 Ar 32.2995 38.7595 45.2194
376 1 Ar 32.2995 45.2194 0
377 1 Ar 32.2995 45.2194 6.45991
378 1 Ar 32.2995 45.2194 12.9198
379 1 Ar 32.2995 45.2194 19.3797
380 1 Ar 32.2995 45.2194 25.8396
381 1 Ar 32.2995 45.2194 32.2995
382 1 Ar 32.2995 45.2194 38.7595
383 1 Ar 32.2995 45.2194 45.2194
384 1 Ar 38.7595 0 0
385 1 Ar 38.7595 0 6.45991
386 1 Ar 38.7595 0 12.9198
387 1 Ar 38.7595 0 19.3797
388 1 Ar 38.7595 0 25.8396
389 1 Ar 38.7595 0 32.2995
390 1 Ar 38.7595 0 38.7595
391 1 Ar 38.7595 0 45.2194
392 1 Ar 38.7595 6.45991 0
393 1 Ar 38.7595 6.45991 6.45991
394 1 Ar 38.7595 6.45991 12.9198
395 1 Ar 38.7595 6.45991 19.3797
396 1 Ar 38.7595 6.45991 25.8396
397 1 Ar 38.7595 6.45991 32.2995
398 1 Ar 38.7595 6.45991 38.7595
399 1 Ar 38.7595 6.45991 45.2194
400 1 Ar 38.7595 12.9198 0
401 1 Ar 38.7595 12.9198 6.45991
402 1 Ar 38.7595 12.9198 12.9198
403 1 Ar 38.7595 12.9198 19.3797
404 1 Ar 38.7595 12.9198 25.8396
405 1 Ar 38.7595 12.9198 32.2995
406 1 Ar 38.7595 12.9198 38.7595
407 1 Ar 38.7595 12.9198 45.2194
408 1 Ar 38.7595 19.3797 0
409 1 Ar 38.7595 19.3797 6.45991
410 1 Ar 38.7595 19.3797 12.9198
411 1 Ar 38.7595 19.3797 19.3797
412 1 Ar 38.7595 19.3797 25.8396
413 1 Ar 38.7595 19.3797 32.2995
414 1 Ar 38.7595 19.3797 38.7595
415 1 Ar 38.7595 19.3797 45.2194
416 1 Ar 38.7595 25.8396 0
417 1 Ar 38.7595 25.8396 6.45991
418 1 Ar 38.7595 25.8396 12.9198
419 1 Ar 38.7595 25.8396 19.3797
420 1 Ar 38.7595 25.8396 25.8396
421 1 Ar 38.7595 25.8396 32.2995
422 1 Ar 38.7595 25.8396 38.7595
423 1 Ar 38.7595 25.8396 45.2194
424 1 Ar 38.7595 32.2995 0
425 1 Ar 38.7595 32.2995 6.45991
426 1 Ar 38.7595 32.2995 12.9198
427 1 Ar 38.7595 32.2995 19.3797
428 1 Ar 38.7595 32.2995 25.8396
429 1 Ar 38.7595 32.2995 32.2995
430 1 Ar 38.7595 32.2995 38.7595
431 1 Ar 38.7595 32.2995 45.2194
432 1 Ar 38.7595 38.7595 0
433 1 Ar 38.7595 38.7595 6.45991
434 1 Ar 38.7595 38.7595 12.9198
435 1 Ar 38.7595 38.7595 19.3797
436 1 Ar 38.7595 38.7595 25.8396
437 1 Ar 38.7595 38.7595 32.2995
438 1 Ar 38.7595 38.7595 38.7595
439 1 Ar 38.7595 38.7595 45.2194
440 1 Ar 38.7595 45.2194 0
441 1 Ar 38.7595 45.2194 6.45991
442 1 Ar 38.7595 45.2194 12.9198
443 1 Ar 38.7595 45.2194 19.3797
444 1 Ar 38.7595 45.2194 25.8396
445 1 Ar 38.7595 45.2194 32.2995
446 1 Ar 38.7595 45.2194 38.7595
447 1 Ar 38.7595 45.2194 45.2194
448 1 Ar 45.2194 0 0
449 1 Ar 45.2194 0 6.45991
450 1 Ar 45.2194 0 12.9198
451 1 Ar 45.2194 0 19.3797
452 1 Ar 45.2194 0 25.8396
453 1 Ar 45.2194 0 32.2995
454 1 Ar 45.2194 0 38.7595
455 1 Ar 45.2194 0 45.2194
456 1 Ar 45.2194 6.45991 0
457 1 Ar 45.2194 6.45991 6.45991
458 1 Ar 45.2194 6.45991 12.9198
459 1 Ar 45.2194 6.45991 19.3797
460 1 Ar 45.2194 6.45991 25.8396
461 1 Ar 45.2194 6.45991 32.2995
462 1 Ar 45.2194 6.45991 38.7595
463 1 Ar 45.2194 6.45991 45.2194
464 1 Ar 45.2194 12.9198 0
465 1 Ar 45.2194 12.9198 6.45991
466 1 Ar 45.2194 12.9198 12.9198
467 1 Ar 45.2194 12.9198 19.3797
468 1 Ar 45.2194 12.9198 25.8396
469 1 Ar 45.2194 12.9198 32.2995
470 1 Ar 45.2194 12.9198 38.7595
471 1 Ar 45.2194 12.9198 45.2194
472 1 Ar 45.2194 19.3797 0
473 1 Ar 45.2194 19.3797 6.45991
474 1 Ar 45.2194 19.3797 12.9198
475 1 Ar 45.2194 19.3797 19.3797
476 1 Ar 45.2194 19.3797 25.8396
477 1 Ar 45.2194 19.3797 32.2995
478 1 Ar 45.2194 19.3797 38.7595
479 1 Ar 45.2194 19.3797 45.2194
480 1 Ar 45.2194 25.8396 0
481 1 Ar 45.2194 25.8396 6.45991
482 1 Ar 45.2194 25.8396 12.9198
483 1 Ar 45.2194 25.8396 19.3797
484 1 Ar 45.2194 25.8396 25.8396
485 1 Ar 45.2194 25.8396 32.2995
486 1 Ar 45.2194 25.8396 38.7595
487 1 Ar 45.2194 25.8396 45.2194
488 1 Ar 45.2194 32.2995 0
489 1 Ar 45.2194 32.2995 6.45991
490 1 Ar 45.2194 32.2995 12.9198
491 1 Ar 45.2194 32.2995 19.3797
492 1 Ar 45.2194 32.2995 25.8396
493 1 Ar 45.2194 32.2995 32.2995
494 1 Ar 45.2194 32.2995 38.7595
495 1 Ar 45.2194 32.2995 45.2194
496 1 Ar 45.2194 38.7595 0
497 1 Ar 45.2194 38.7595 6.45991
498 1 Ar 45.2194 38.7595 12.9198
499 1 Ar 45.2194 38.7595 19.3797
ITEM: TIMESTEP
19999
ITEM: NUMBER OF ATOMS
500
ITEM: BOX BOUNDS pp pp pp
0 58.1392
0 58.1392
0 58.1392
ITEM: ATOMS id type element xu yu zu
0 1 Ar 51.3751 29.3316 8.9394
1 1 Ar 17.6208 42.0651 52.6522
2 1 Ar 44.249 8.25936 39.175
3 1 Ar 39.1775 38.4921 55.5988
4 1 Ar 20.2191 38.8229 12.3487
5 1 Ar 1.18134 51.9314 0.559062
6 1 Ar 51.9862 32.4833 52.5908
7 1 Ar 37.6439 43.2312 35.8211
8 1 Ar 52.4794 35.4484 22.3761
9 1 Ar 18.875 56.5859 25.6753
10 1 Ar 50.9134 4.37102 8.72349
11 1 Ar 52.0206 42.2424 30.1313
12 1 Ar 57.3126 29.1589 57.7463
13 1 Ar 7.79265 40.1462 38.6457
14 1 Ar 54.4754 22.3485 38.7181
15 1 Ar 0.712498 26.9457 13.6888
16 1 Ar 42.0749 5.23809 10.0527
17 1 Ar 5.42404 10.6125 8.57268
18 1 Ar 19.0808 36.9238 31.0573
19 1 Ar 46.9815 8.82165 27.5424
20 1 Ar 55.1939 41.8328 58.1303
21 1 Ar 38.5479 2.94568 33.5684
22 1 Ar 21.2063 12.4045 24.2996
23 1 Ar 12.054 14.2837 51.6642
24 1 Ar 2.46303 21.8433 14.8836
25 1 Ar 21.0832 0.198076 8.8273
26 1 Ar 1.8105 34.8834 10.9223
27 1 Ar 37.0858 52.7398 33.8946
28 1 Ar 18.5657 5.50306 20.8854
29 1 Ar 9.27959 37.6774 20.8991
30 1 Ar 20.5145 45.1843 43.046
31 1 Ar 19.8946 15.0995 10.5587
32 1 Ar 21.5682 34.6919 26.2301
33 1 Ar 49.2211 0.569292 53.833
34 1 Ar 52.8976 37.8312 15.7115
35 1 Ar 3.93358 54.638 16.9018
36 1 Ar 21.0493 35.5909 57.6382
37 1 Ar 43.1115 38.5072 55.0632
38 1 Ar 33.4877 28.2459 10.9049
39 1 Ar 17.973 13.3438 7.86236
40 1 Ar 29.6264 38.9706 3.70341
41 1 Ar 14.4497 6.49573 8.27634
42 1 Ar 13.8053 57.6047 44.4753
43 1 Ar 25.4298 39.1086 45.3324
44 1 Ar 53.4893 30.1995 12.3988
45 1 Ar 21.3518 16.885 36.2331
46 1 Ar 35.4802 44.1382 40.3663
47 1 Ar 48.8074 32.1902 31.0598
48 1 Ar 34.731 30.6597 13.2189
49 1 Ar 31.0542 3.26194 52.2578
50 1 Ar 24.0533 8.55142 13.4972
51 1 Ar 34.7046 25.4804 25.7368
52 1 Ar 2.24215 7.75303 44.4649
53 1 Ar 27.4149 26.3394 15.1395
54 1 Ar 40.5118 32.4657 25.7726
55 1 Ar 15.5624 33.1111 52.5629
56 1 Ar 37.3588 43.7678 52.8154
57 1 Ar 3.74618 5.81312 2.9552
58 1 Ar 37.6459 52.505 16.3101
59 1 Ar 55.0748 48.9429 17.1767
60 1 Ar 4.99689 4.8249 36.0011
61 1 Ar 43.7799 42.4773 20.9365
62 1 Ar 14.5391 31.522 11.2973
63 1 Ar 2.84262 26.0263 53.7702
64 1 Ar 21.2456 15.3514 40.9878
65 1 Ar 55.9962 0.413122 19.4675
66 1 Ar 2.29865 39.543 18.7613
67 1 Ar 37.3066 29.3919 23.1686
68 1 Ar 8.45959 44.6879 16.2873
69 1 Ar 33.1874 51.4131 19.2269
70 1 Ar 4.87055 8.63824 49.8959
71 1 Ar 38.6768 18.0529 38.9934
72 1 Ar 48.6975 31.3182 34.4855
73 1 Ar 10.5174 49.5951 9.75175
74 1 Ar 13.5031 48.1667 20.1961
75 1 Ar 49.0938 34.6716 15.6024
76 1 Ar 17.3045 15.1032 22.5843
77 1 Ar 19.5955 54.625 9.64063
78 1 Ar 12.0343 13.6237 24.5139
79 1 Ar 45.9565 54.6077 25.1718
80 1 Ar 24.0211 44.1046 17.496
81 1 Ar 29.3612 30.6158 10.7639
82 1 Ar 36.3661 3.01261 42.8741
83 1 Ar 14.1004 0.0470484 5.31857
84 1 Ar 8.1321 8.62263 48.6359
85 1 Ar 33.3273 29.8244 54.3967
86 1 Ar 57.2676 36.7285 54.243
87 1 Ar 54.816 29.0892 22.2997
88 1 Ar 54.4467 4.84258 51.8118
89 1 Ar 3.45778 8.31277 33.4834
90 1 Ar 8.98156 3.10344 36.6673
91 1 Ar 8.09241 1.07865 31.779
92 1 Ar 8.82539 19.8108 6.20565
93 1 Ar 11.6014 55.3073 8.27417
94 1 Ar 3.65519 27.6586 24.3014
95 1 Ar 37.857 46.6755 56.9529
96 1 Ar 19.9617 51.773 12.0664
97 1 Ar 5.32242 35.3061 5.17251
98 1 Ar 42.5081 12.6114 30.3511
99 1 Ar 32.1554 28.5308 37.009
100 1 Ar 7.46622 56.1891 0.782808
101 1 Ar 6.91264 14.8889 45.3063
102 1 Ar 4.50906 35.6017 52.4996
103 1 Ar 25.5721 16.925 33.2213
104 1 Ar 43.331 13.5126 55.3474
105 1 Ar 30.9879 34.6999 31.4649
106 1 Ar 18.8243 41.8982 42.7895
107 1 Ar 10.2999 8.71512 55.3844
108 1 Ar 18.1196 41.9814 26.1586
109 1 Ar 23.3441 28.4314 24.9335
110 1 Ar 55.453 35.1726 20.4142
111 1 Ar 40.7642 53.1009 28.7721
112 1 Ar 55.6444 25.9661 26.3345
113 1 Ar 13.9303 35.8167 22.6948
114 1 Ar 2.18713 27.249 57.1703
115 1 Ar 34.8352 55.5008 51.9973
116 1 Ar 4.06516 40.6006 31.28
117 1 Ar 44.4622 39.3155 23.9701
118 1 Ar 37.248 34.9906 29.0217
119 1 Ar 26.5392 49.2425 39.9148
120 1 Ar 21.331 45.6955 25.4624
121 1 Ar 37.9714 14.3145 51.7154
122 1 Ar 24.2825 42.0908 56.7627
123 1 Ar 34.9901 3.50669 20.48
124 1 Ar 53.3827 31.4779 18.7964
125 1 Ar 21.1875 5.41208 16.0057
126 1 Ar 41.7652 13.1154 42.0126
127 1 Ar 28.5939 35.6849 4.51506
128 1 Ar 47.4995 50.956 26.2778
129 1 Ar 49.3282 43.5577 45.3977
130 1 Ar 20.8621 25.8263 55.3656
131 1 Ar 34.47 4.77198 12.7536
132 1 Ar 50.3051 17.1788 42.0451
133 1 Ar 24.8631 35.4717 45.4875
134 1 Ar 35.6419 39.5965 5.76055
135 1 Ar 52.181 10.2709 36.0293
136 1 Ar 28.6968 13.7337 4.13877
137 1 Ar 25.5478 5.78543 23.203
138 1 Ar 28.0461 0.464991 55.5932
139 1 Ar 35.3128 5.64979 53.051
140 1 Ar 43.0498 46.5612 56.5237
141 1 Ar 7.41465 16.9609 35.1992
142 1 Ar 50.4513 29.4154 38.0141
143 1 Ar 18.2015 25.0508 24.7856
144 1 Ar 13.8098 2.63135 41.3617
145 1 Ar 38.8016 55.4718 6.34508
146 1 Ar 10.6868 5.5386 47.5151
147 1 Ar 2.33481 28.8702 20.8137
148 1 Ar 33.5509 38.314 27.6993
149 1 Ar 21.1629 20.5824 35.0352
150 1 Ar 24.8082 15.1923 40.4108
151 1 Ar 6.1117 0.632837 44.0319
152 1 Ar 25.3077 21.0575 43.4413
153 1 Ar 25.4651 55.4462 54.2705
154 1 Ar 43.4318 33.6304 46.3779
155 1 Ar 8.17777 1.52341 47.4653
156 1 Ar 48.1127 1.25305 6.83481
157 1 Ar 14.3721 15.8702 26.9726
158 1 Ar 38.9774 10.2809 3.20616
159 1 Ar 17.512 13.7246 43.594
160 1 Ar 5.72451 21.6193 57.2725
161 1 Ar 7.23239 45.3911 24.2298
162 1 Ar 18.2958 8.03011 43.6805
163 1 Ar 41.2732 37.2908 21.4021
164 1 Ar 4.87762 3.91676 39.5512
165 1 Ar 44.8674 26.6607 14.8772
166 1 Ar 22.7229 48.3233 3.8401
167 1 Ar 11.829 35.6781 15.635
168 1 Ar 33.301 32.1284 0.228
169 1 Ar 21.4852 42.8195 51.3897
170 1 Ar 58.1317 54.9322 4.37451
171 1 Ar 40.5677 25.1575 13.0796
172 1 Ar 47.0227 33.4428 19.8999
173 1 Ar 16.7115 10.9954 11.1434
174 1 Ar 9.77775 13.7918 5.56258
175 1 Ar 11.9884 5.58516 56.9511
176 1 Ar 52.7649 42.0786 42.2032
177 1 Ar 8.75167 40.0965 26.8033
178 1 Ar 14.9656 42.4744 21.5659
179 1 Ar 4.68895 12.4176 47.1077
180 1 Ar 29.0932 57.9588 0.856954
181 1 Ar 17.8644 57.9633 56.5163
182 1 Ar 27.4859 50.2964 6.52188
183 1 Ar 6.32992 55.5301 48.3539
184 1 Ar 56.2804 32.1449 4.87841
185 1 Ar 0.308475 26.2911 18.5986
186 1 Ar 53.9081 12.3925 32.6099
187 1 Ar 40.1575 28.9544 0.625165
188 1 Ar 1.7761 6.97515 37.3618
189 1 Ar 5.99198 42.7525 36.0736
190 1 Ar 16.1852 33.588 45.3722
191 1 Ar 40.9275 1.39505 22.2787
192 1 Ar 23.9264 42.165 43.02
193 1 Ar 21.6955 44.0873 34.1482
194 1 Ar 13.6501 39.7393 24.447
195 1 Ar 8.11498 34.5462 27.746
196 1 Ar 10.6124 15.8787 30.0899
197 1 Ar 29.1374 58.1063 6.32355
198 1 Ar 27.3544 35.1299 31.6461
199 1 Ar 51.3814 33.8908 48.5343
200 1 Ar 33.8179 28.6628 1.82248
201 1 Ar 30.2812 38.2731 9.83134
202 1 Ar 28.5255 32.2988 29.5482
203 1 Ar 17.6434 45.8328 27.4852
204 1 Ar 22.4881 39.2404 41.2693
205 1 Ar 49.5066 12.2426 28.8016
206 1 Ar 27.6006 5.64478 14.8862
207 1 Ar 2.78681 18.632 34.3262
208 1 Ar 25.7711 6.3102 50.116
209 1 Ar 34.2758 38.3931 57.9257
210 1 Ar 22.7477 27.002 40.188
211 1 Ar 13.3123 26.3836 47.9001
212 1 Ar 41.8242 18.3546 55.8916
213 1 Ar 22.1505 41.6889 26.0936
214 1 Ar 29.791 47.0051 26.9528
215 1 Ar 44.5698 6.86294 17.9761
216 1 Ar 14.7104 44.2904 38.6983
217 1 Ar 46.7751 45.1293 30.5791
218 1 Ar 39.6828 42.6171 43.8858
219 1 Ar 38.3821 11.3509 47.2079
220 1 Ar 19.3787 32.1062 19.8994
221 1 Ar 38.3682 32.7035 58.0943
222 1 Ar 43.266 30.9379 53.7228
223 1 Ar 57.8269 22.0005 17.2328
224 1 Ar 36.3826 17.1847 20.7757
225 1 Ar 45.9305 35.3747 4.08806
226 1 Ar 26.457 29.0848 22.1578
227 1 Ar 10.3797 48.5095 34.0215
228 1 Ar 52.3938 0.907709 29.2738
229 1 Ar 10.7775 33.3783 46.4657
230 1 Ar 35.1349 11.4193 3.60633
231 1 Ar 52.7817 2.21417 21.8572
232 1 Ar 28.206 6.83412 9.70682
233 1 Ar 13.5345 51.0587 49.0475
234 1 Ar 52.6401 31.6775 35.9571
235 1 Ar 8.6734 0.262451 40.7506
236 1 Ar 57.6456 12.4249 42.9316
237 1 Ar 55.8326 26.9868 30.477
238 1 Ar 54.0134 10.9261 50.7292
239 1 Ar 38.5835 42.6662 57.8957
240 1 Ar 22.493 10.2154 16.7649
241 1 Ar 13.6102 50.6903 33.3564
242 1 Ar 9.6485 48.7242 4.42354
243 1 Ar 12.7016 0.909124 53.9973
244 1 Ar 15.4388 29.036 23.9758
245 1 Ar 54.5143 25.5902 49.2133
246 1 Ar 57.735 6.47767 40.3107
247 1 Ar 1.2227 33.3755 19.6254
248 1 Ar 52.0227 46.9233 16.0906
249 1 Ar 20.9907 49.1612 9.03659
250 1 Ar 7.70915 33.1917 16.9885
251 1 Ar 22.5736 17.8516 43.8663
252 1 Ar 5.4842 42.072 40.6869
253 1 Ar 17.8835 54.6265 58.0532
254 1 Ar 16.6805 48.3749 4.04437
255 1 Ar 32.1752 25.4971 0.241192
256 1 Ar 14.4836 2.9476 50.4093
257 1 Ar 35.5471 10.8687 0.0770731
258 1 Ar 55.5275 31.7149 56.0562
259 1 Ar 53.4913 56.5882 26.9625
260 1 Ar 34.7967 2.70036 29.7387
261 1 Ar 39.1093 15.3803 30.3025
262 1 Ar 5.7675 24.3019 10.5227
263 1 Ar 35.6437 33.2319 35.59
264 1 Ar 24.9173 56.1669 49.3259
265 1 Ar 35.1265 1.43654 4.664
266 1 Ar 23.0797 1.49586 40.6043
267 1 Ar 17.9207 29.7196 6.86911
268 1 Ar 12.2155 17.6445 24.3727
269 1 Ar 18.5687 45.5016 23.0128
270 1 Ar 32.4014 56.7518 35.1864
271 1 Ar 39.1739 46.4035 15.7246
272 1 Ar 36.0637 21.3044 55.134
273 1 Ar 37.9593 45.4746 24.3904
274 1 Ar 55.7477 33.3243 11.7925
275 1 Ar 52.3958 22.9529 30.4013
276 1 Ar 56.4757 37.2273 12.5067
277 1 Ar 18.2617 27.1953 39.6205
278 1 Ar 50.4488 32.5698 10.1661
279 1 Ar 31.6802 41.365 5.90091
280 1 Ar 55.0655 8.43418 42.0671
281 1 Ar 37.9814 11.4737 38.2598
282 1 Ar 52.9848 24.6102 44.1444
283 1 Ar 53.4864 29.0822 51.0363
284 1 Ar 13.1655 6.81067 36.6952
285 1 Ar 24.1158 5.40982 32.3522
286 1 Ar 48.9297 35.7692 23.2663
287 1 Ar 1.17455 25.3005 25.833
288 1 Ar 24.1995 47.4973 19.405
289 1 Ar 3.86596 19.6102 12.461
290 1 Ar 10.3919 25.0191 9.24346
291 1 Ar 54.0923 55.9416 18.2968
292 1 Ar 2.73258 37.7888 15.2313
293 1 Ar 19.6629 39.8776 20.7387
294 1 Ar 54.1342 26.8546 38.6453
295 1 Ar 29.28 46.9506 44.2978
296 1 Ar 21.9551 21.4298 47.8675
297 1 Ar 45.5426 36.4435 21.6092
298 1 Ar 49.6391 41.9508 32.9093
299 1 Ar 46.8938 41.6387 3.52481
300 1 Ar 28.1591 15.33 7.02239
301 1 Ar 27.5193 29.5865 1.30581
302 1 Ar 9.04734 36.4967 33.6031
303 1 Ar 53.136 15.9949 48.7407
304 1 Ar 28.6291 42.5084 3.72997
305 1 Ar 34.6624 2.2253 55.3363
306 1 Ar 44.375 42.5384 53.5988
307 1 Ar 11.4042 7.04119 39.847
308 1 Ar 29.2216 5.37287 36.2022
309 1 Ar 0.803622 35.095 46.4743
310 1 Ar 33.699 41.0327 47.4414
311 1 Ar 23.5538 15.3143 17.7677
312 1 Ar 57.8186 41.3897 15.2165
313 1 Ar 43.5729 22.165 41.4713
314 1 Ar 23.0078 1.84843 55.9684
315 1 Ar 48.5237 14.6604 2.65218
316 1 Ar 49.5536 16.9364 29.1614
317 1 Ar 45.2267 55.7832 18.4403
318 1 Ar 26.3907 3.80772 11.9717
319 1 Ar 10.8458 17.6834 49.723
320 1 Ar 14.9147 27.8202 42.0083
321 1 Ar 30.016 51.6175 11.6707
322 1 Ar 4.60079 31.945 48.2942
323 1 Ar 26.252 21.4796 54.007
324 1 Ar 22.8621 39.4512 50.5057
325 1 Ar 27.9292 0.534306 22.6008
326 1 Ar 19.5132 10.1092 21.8801
327 1 Ar 58.0573 38.8259 5.26821
328 1 Ar 3.16535 37.0234 21.6304
329 1 Ar 52.4307 35.3349 30.8872
330 1 Ar 30.5436 35.3292 15.4068
331 1 Ar 36.1295 38.4975 41.6467
332 1 Ar 32.928 8.12809 33.6993
333 1 Ar 41.9362 50.2246 17.6696
334 1 Ar 25.7358 48.4799 12.9207
335 1 Ar 5.50135 16.5963 38.3472
336 1 Ar 26.5652 23.9469 45.6127
337 1 Ar 22.9128 47.9324 37.9821
338 1 Ar 38.1506 7.03568 29.8744
339 1 Ar 37.9872 42.9188 47.3062
340 1 Ar 15.0394 20.523 26.0914
341 1 Ar 56.4855 13.3931 14.9044
342 1 Ar 51.7558 37.346 26.4633
343 1 Ar 21.6393 38.9784 56.6699
344 1 Ar 57.8383 12.6837 9.54282
345 1 Ar 56.8657 34.6654 8.5264
346 1 Ar 25.6606 51.1933 9.65891
347 1 Ar 0.483427 31.8332 15.8427
348 1 Ar 20.0427 16.7217 47.7482
349 1 Ar 40.2196 14.3061 45.4225
350 1 Ar 35.99 21.8368 39.7367
351 1 Ar 35.5176 32.9297 54.4515
352 1 Ar 5.6869 8.42038 36.5857
353 1 Ar 27.7837 55.3742 2.7343
354 1 Ar 14.9317 55.8276 47.6787
355 1 Ar 44.4858 40.709 16.3611
356 1 Ar 25.418 27.8386 4.14681
357 1 Ar 50.9342 27.5926 24.3604
358 1 Ar 45.874 55.8717 52.9411
359 1 Ar 49.0247 42.7513 17.2314
360 1 Ar 7.62271 25.5136 48.2962
361 1 Ar 19.2353 37.3089 42.6384
362 1 Ar 12.2742 11.2651 39.132
363 1 Ar 21.3013 56.744 33.4378
364 1 Ar 8.81365 38.1482 15.0767
365 1 Ar 11.1538 2.73726 15.2835
366 1 Ar 39.8426 49.685 55.3611
367 1 Ar 27.6633 43.7648 9.20887
368 1 Ar 34.9065 34.4245 49.3454
369 1 Ar 34.5403 11.0509 32.0237
370 1 Ar 20.1891 10.8349 10.5883
371 1 Ar 16.888 6.10713 15.0916
372 1 Ar 23.7767 19.4282 28.4149
373 1 Ar 4.32566 39.67 9.20366
374 1 Ar 26.3828 28.8551 45.1911
375 1 Ar 21.0002 50.1201 15.4914
376 1 Ar 22.2583 33.1 32.7368
377 1 Ar 12.2706 0.347366 2.27759
378 1 Ar 27.7084 37.9208 57.8457
379 1 Ar 10.7743 28.4796 52.6493
380 1 Ar 36.4767 39.8748 2.27184
381 1 Ar 13.5329 39.1231 19.715
382 1 Ar 39.8155 31.9127 21.6812
383 1 Ar 26.0412 12.3755 14.1517
384 1 Ar 41.8631 50.4816 12.1777
385 1 Ar 0.0122065 35.2582 14.6222
386 1 Ar 20.3903 52.8983 27.7065
387 1 Ar 42.8667 34.1267 21.3071
388 1 Ar 19.0354 17.2197 26.0075
389 1 Ar 20.4064 3.88476 47.3186
390 1 Ar 14.6632 2.56651 23.1059
391 1 Ar 17.5633 56.9615 6.48866
392 1 Ar 12.3462 29.6851 46.8947
393 1 Ar 31.8456 44.4784 23.7597
394 1 Ar 22.0149 45.2911 55.5076
395 1 Ar 38.2995 8.64504 6.4945
396 1 Ar 36.1906 50.0736 12.3287
397 1 Ar 40.6215 40.808 37.5713
398 1 Ar 24.52 49.5532 0.285832
399 1 Ar 51.9033 33.3439 27.5932
400 1 Ar 42.0309 34.3669 52.97
401 1 Ar 26.7688 41.9696 37.9455
402 1 Ar 53.6282 35.4438 1.15634
403 1 Ar 47.523 40.4613 21.9092
404 1 Ar 40.4888 22.349 15.9909
405 1 Ar 18.8901 40.4545 29.2045
406 1 Ar 39.596 46.2692 35.0926
407 1 Ar 1.17999 41.4074 24.2768
408 1 Ar 19.9596 49.3641 56.1282
409 1 Ar 29.2897 26.5293 46.5308
410 1 Ar 41.4913 5.93314 32.1518
411 1 Ar 1.44261 18.1588 51.7247
412 1 Ar 57.0019 14.3404 23.0452
413 1 Ar 3.77459 56.3158 4.7099
414 1 Ar 29.2768 9.7438 5.95231
415 1 Ar 22.1649 33.8365 21.2312
416 1 Ar 49.4011 45.5304 55.8338
417 1 Ar 13.9316 27.1568 18.2072
418 1 Ar 35.4694 35.0733 3.04729
419 1 Ar 42.9009 36.9508 15.9804
420 1 Ar 54.3614 10.9825 38.9885
421 1 Ar 38.4433 17.3021 46.6658
422 1 Ar 29.1954 35.5401 7.90867
423 1 Ar 28.8338 2.10369 9.54831
424 1 Ar 16.2582 51.7858 3.05491
425 1 Ar 8.73558 57.3715 50.6913
426 1 Ar 57.388 15.9253 41.6692
427 1 Ar 10.1144 27.1103 44.0798
428 1 Ar 55.2556 35.2444 16.8638
429 1 Ar 30.4828 27.0941 12.595
430 1 Ar 28.3091 5.87791 44.3411
431 1 Ar 54.5005 41.6808 37.4449
432 1 Ar 17.8705 43.9354 13.4958
433 1 Ar 26.7778 33.7893 0.424995
434 1 Ar 3.48687 7.55103 29.4697
435 1 Ar 52.4741 42.3969 53.2621
436 1 Ar 17.3964 10.0126 52.9255
437 1 Ar 33.6029 29.2247 46.3822
438 1 Ar 50.5507 38.9155 23.4278
439 1 Ar 31.1664 55.717 20.6504
440 1 Ar 17.2372 50.4498 30.8013
441 1 Ar 30.3052 19.0896 30.037
442 1 Ar 14.9916 12.9419 30.5335
443 1 Ar 25.1173 45.0836 2.94529
444 1 Ar 17.441 36.2469 15.4996