ITEM: TIMESTEP
-1
ITEM: NUMBER OF ATOMS
500
ITEM: BOX BOUNDS pp pp pp
0 31.9952
0 31.9952
0 31.9952
ITEM: ATOMS id type element xu yu zu
0 1 Ar 0 0 0
1 1 Ar 0 0 3.55502
2 1 Ar 0 0 7.11005
3 1 Ar 0 0 10.6651
4 1 Ar 0 0 14.2201
5 1 Ar 0 0 17.7751
6 1 Ar 0 0 21.3301
7 1 Ar 0 0 24.8852
8 1 Ar 0 3.55502 0
9 1 Ar 0 3.55502 3.55502
10 1 Ar 0 3.55502 7.11005
11 1 Ar 0 3.55502 10.6651
12 1 Ar 0 3.55502 14.2201
13 1 Ar 0 3.55502 17.7751
14 1 Ar 0 3.55502 21.3301
15 1 Ar 0 3.55502 24.8852
16 1 Ar 0 7.11005 0
17 1 Ar 0 7.11005 3.55502
18 1 Ar 0 7.11005 7.11005
19 1 Ar 0 7.11005 10.6651
20 1 Ar 0 7.11005 14.2201
21 1 Ar 0 7.11005 17.7751
22 1 Ar 0 7.11005 21.3301
23 1 Ar 0 7.11005 24.8852
24 1 Ar 0 10.6651 0
25 1 Ar 0 10.6651 3.55502
26 1 Ar 0 10.6651 7.11005
27 1 Ar 0 10.6651 10.6651
28 1 Ar 0 10.6651 14.2201
29 1 Ar 0 10.6651 17.7751
30 1 Ar 0 10.6651 21.3301
31 1 Ar 0 10.6651 24.8852
32 1 Ar 0 14.2201 0
33 1 Ar 0 14.2201 3.55502
34 1 Ar 0 14.2201 7.11005
35 1 Ar 0 14.2201 10.6651
36 1 Ar 0 14.2201 14.2201
37 1 Ar 0 14.2201 17.7751
38 1 Ar 0 14.2201 21.3301
39 1 Ar 0 14.2201 24.8852
40 1 Ar 0 17.7751 0
41 1 Ar 0 17.7751 3.55502
42 1 Ar 0 17.7751 7.11005
43 1 Ar 0 17.7751 10.6651
44 1 Ar 0 17.7751 14.2201
45 1 Ar 0 17.7751 17.7751
46 1 Ar 0 17.7751 21.3301
47 1 Ar 0 17.7751 24.8852
48 1 Ar 0 21.3301 0
49 1 Ar 0 21.3301 3.55502
50 1 Ar 0 21.3301 7.11005
51 1 Ar 0 21.3301 10.6651
52 1 Ar 0 21.3301 14.2201
53 1 Ar 0 21.3301 17.7751
54 1 Ar 0 21.3301 21.3301
55 1 Ar 0 21.3301 24.8852
56 1 Ar 0 24.8852 0
57 1 Ar 0 24.8852 3.55502
58 1 Ar 0 24.8852 7.11005
59 1 Ar 0 24.8852 10.6651
60 1 Ar 0 24.8852 14.2201
61 1 Ar 0 24.8852 17.7751
62 1 Ar 0 24.8852 21.3301
63 1 Ar 0 24.8852 24.8852
64 1 Ar 3.55502 0 0
65 1 Ar 3.55502 0 3.55502
66 1 Ar 3.55502 0 7.11005
67 1 Ar 3.55502 0 10.6651
68 1 Ar 3.55502 0 14.2201
69 1 Ar 3.55502 0 17.7751
70 1 Ar 3.55502 0 21.3301
71 1 Ar 3.55502 0 24.8852
72 1 Ar 3.55502 3.55502 0
73 1 Ar 3.55502 3.55502 3.55502
74 1 Ar 3.55502 3.55502 7.11005
75 1 Ar 3.55502 3.55502 10.6651
76 1 Ar 3.55502 3.55502 14.2201
77 1 Ar 3.55502 3.55502 17.7751
78 1 Ar 3.55502 3.55502 21.3301
79 1 Ar 3.55502 3.55502 24.8852
80 1 Ar 3.55502 7.11005 0
81 1 Ar 3.55502 7.11005 3.55502
82 1 Ar 3.55502 7.11005 7.11005
83 1 Ar 3.55502 7.11005 10.6651
84 1 Ar 3.55502 7.11005 14.2201
85 1 Ar 3.55502 7.11005 17.7751
86 1 Ar 3.55502 7.11005 21.3301
87 1 Ar 3.55502 7.11005 24.8852
88 1 Ar 3.55502 10.6651 0
89 1 Ar 3.55502 10.6651 3.55502
90 1 Ar 3.55502 10.6651 7.11005
91 1 Ar 3.55502 10.6651 10.6651
92 1 Ar 3.55502 10.6651 14.2201
93 1 Ar 3.55502 10.6651 17.7751
94 1 Ar 3.55502 10.6651 21.3301
95 1 Ar 3.55502 10.6651 24.8852
96 1 Ar 3.55502 14.2201 0
97 1 Ar 3.55502 14.2201 3.55502
98 1 Ar 3.55502 14.2201 7.11005
99 1 Ar 3.55502 14.2201 10.6651
100 1 Ar 3.55502 14.2201 14.2201
101 1 Ar 3.55502 14.2201 17.7751
102 1 Ar 3.55502 14.2201 21.3301
103 1 Ar 3.55502 14.2201 24.8852
104 1 Ar 3.55502 17.7751 0
105 1 Ar 3.55502 17.7751 3.55502
106 1 Ar 3.55502 17.7751 7.11005
107 1 Ar 3.55502 17.7751 10.6651
108 1 Ar 3.55502 17.7751 14.2201
109 1 Ar 3.55502 17.7751 17.7751
110 1 Ar 3.55502 17.7751 21.3301
111 1 Ar 3.55502 17.7751 24.8852
112 1 Ar 3.55502 21.3301 0
113 1 Ar 3.55502 21.3301 3.55502
114 1 Ar 3.55502 21.3301 7.11005
115 1 Ar 3.55502 21.3301 10.6651
116 1 Ar 3.55502 21.3301 14.2201
117 1 Ar 3.55502 21.3301 17.7751
118 1 Ar 3.55502 21.3301 21.3301
119 1 Ar 3.55502 21.3301 24.8852
120 1 Ar 3.55502 24.8852 0
121 1 Ar 3.55502 24.8852 3.55502
122 1 Ar 3.55502 24.8852 7.11005
123 1 Ar 3.55502 24.8852 10.6651
124 1 Ar 3.55502 24.8852 14.2201
125 1 Ar 3.55502 24.8852 17.7751
126 1 Ar 3.55502 24.8852 21.3301
127 1 Ar 3.55502 24.8852 24.8852
128 1 Ar 7.11005 0 0
129 1 Ar 7.11005 0 3.55502
130 1 Ar 7.11005 0 7.11005
131 1 Ar 7.11005 0 10.6651
132 1 Ar 7.11005 0 14.2201
133 1 Ar 7.11005 0 17.7751
134 1 Ar 7.11005 0 21.3301
135 1 Ar 7.11005 0 24.8852
136 1 Ar 7.11005 3.55502 0
137 1 Ar 7.11005 3.55502 3.55502
138 1 Ar 7.11005 3.55502 7.11005
139 1 Ar 7.11005 3.55502 10.6651
140 1 Ar 7.11005 3.55502 14.2201
141 1 Ar 7.11005 3.55502 17.7751
142 1 Ar 7.11005 3.55502 21.3301
143 1 Ar 7.11005 3.55502 24.8852
144 1 Ar 7.11005 7.11005 0
145 1 Ar 7.11005 7.11005 3.55502
146 1 Ar 7.11005 7.11005 7.11005
147 1 Ar 7.11005 7.11005 10.6651
148 1 Ar 7.11005 7.11005 14.2201
149 1 Ar 7.11005 7.11005 17.7751
150 1 Ar 7.11005 7.11005 21.3301
151 1 Ar 7.11005 7.11005 24.8852
152 1 Ar 7.11005 10.6651 0
153 1 Ar 7.11005 10.6651 3.55502
154 1 Ar 7.11005 10.6651 7.11005
155 1 Ar 7.11005 10.6651 10.6651
156 1 Ar 7.11005 10.6651 14.2201
157 1 Ar 7.11005 10.6651 17.7751
158 1 Ar 7.11005 10.6651 21.3301
159 1 Ar 7.11005 10.6651 24.8852
160 1 Ar 7.11005 14.2201 0
161 1 Ar 7.11005 14.2201 3.55502
162 1 Ar 7.11005 14.2201 7.11005
163 1 Ar 7.11005 14.2201 10.6651
164 1 Ar 7.11005 14.2201 14.2201
165 1 Ar 7.11005 14.2201 17.7751
166 1 Ar 7.11005 14.2201 21.3301
167 1 Ar 7.11005 14.2201 24.8852
168 1 Ar 7.11005 17.7751 0
169 1 Ar 7.11005 17.7751 3.55502
170 1 Ar 7.11005 17.7751 7.11005
171 1 Ar 7.11005 17.7751 10.6651
172 1 Ar 7.11005 17.7751 14.2201
173 1 Ar 7.11005 17.7751 17.7751
174 1 Ar 7.11005 17.7751 21.3301
175 1 Ar 7.11005 17.7751 24.8852
176 1 Ar 7.11005 21.3301 0
177 1 Ar 7.11005 21.3301 3.55502
178 1 Ar 7.11005 21.3301 7.11005
179 1 Ar 7.11005 21.3301 10.6651
180 1 Ar 7.11005 21.3301 14.2201
181 1 Ar 7.11005 21.3301 17.7751
182 1 Ar 7.11005 21.3301 21.3301
183 1 Ar 7.11005 21.3301 24.8852
184 1 Ar 7.11005 24.8852 0
185 1 Ar 7.11005 24.8852 3.55502
186 1 Ar 7.11005 24.8852 7.11005
187 1 Ar 7.11005 24.8852 10.6651
188 1 Ar 7.11005 24.8852 14.2201
189 1 Ar 7.11005 24.8852 17.7751
190 1 Ar 7.11005 24.8852 21.3301
191 1 Ar 7.11005 24.8852 24.8852
192 1 Ar 10.6651 0 0
193 1 Ar 10.6651 0 3.55502
194 1 Ar 10.6651 0 7.11005
195 1 Ar 10.6651 0 10.6651
196 1 Ar 10.6651 0 14.2201
197 1 Ar 10.6651 0 17.7751
198 1 Ar 10.6651 0 21.3301
199 1 Ar 10.6651 0 24.8852
200 1 Ar 10.6651 3.55502 0
201 1 Ar 10.6651 3.55502 3.55502
202 1 Ar 10.6651 3.55502 7.11005
203 1 Ar 10.6651 3.55502 10.6651
204 1 Ar 10.6651 3.55502 14.2201
205 1 Ar 10.6651 3.55502 17.7751
206 1 Ar 10.6651 3.55502 21.3301
207 1 Ar 10.6651 3.55502 24.8852
208 1 Ar 10.6651 7.11005 0
209 1 Ar 10.6651 7.11005 3.55502
210 1 Ar 10.6651 7.11005 7.11005
211 1 Ar 10.6651 7.11005 10.6651
212 1 Ar 10.6651 7.11005 14.2201
213 1 Ar 10.6651 7.11005 17.7751
214 1 Ar 10.6651 7.11005 21.3301
215 1 Ar 10.6651 7.11005 24.8852
216 1 Ar 10.6651 10.6651 0
217 1 Ar 10.6651 10.6651 3.55502
218 1 Ar 10.6651 10.6651 7.11005
219 1 Ar 10.6651 10.6651 10.6651
220 1 Ar 10.6651 10.6651 14.2201
221 1 Ar 10.6651 10.6651 17.7751
222 1 Ar 10.6651 10.6651 21.3301
223 1 Ar 10.6651 10.6651 24.8852
224 1 Ar 10.6651 14.2201 0
225 1 Ar 10.6651 14.2201 3.55502
226 1 Ar 10.6651 14.2201 7.11005
227 1 Ar 10.6651 14.2201 10.6651
228 1 Ar 10.6651 14.2201 14.2201
229 1 Ar 10.6651 14.2201 17.7751
230 1 Ar 10.6651 14.2201 21.3301
231 1 Ar 10.6651 14.2201 24.8852
232 1 Ar 10.6651 17.7751 0
233 1 Ar 10.6651 17.7751 3.55502
234 1 Ar 10.6651 17.7751 7.11005
235 1 Ar 10.6651 17.7751 10.6651
236 1 Ar 10.6651 17.7751 14.2201
237 1 Ar 10.6651 17.7751 17.7751
238 1 Ar 10.6651 17.7751 21.3301
239 1 Ar 10.6651 17.7751 24.8852
240 1 Ar 10.6651 21.3301 0
241 1 Ar 10.6651 21.3301 3.55502
242 1 Ar 10.6651 21.3301 7.11005
243 1 Ar 10.6651 21.3301 10.6651
244 1 Ar 10.6651 21.3301 14.2201
245 1 Ar 10.6651 21.3301 17.7751
246 1 Ar 10.6651 21.3301 21.3301
247 1 Ar 10.6651 21.3301 24.8852
248 1 Ar 10.6651 24.8852 0
249 1 Ar 10.6651 24.8852 3.55502
250 1 Ar 10.6651 24.8852 7.11005
251 1 Ar 10.6651 24.8852 10.6651
252 1 Ar 10.6651 24.8852 14.2201
253 1 Ar 10.6651 24.8852 17.7751
254 1 Ar 10.6651 24.8852 21.3301
255 1 Ar 10.6651 24.8852 24.8852
256 1 Ar 14.2201 0 0
257 1 Ar 14.2201 0 3.55502
258 1 Ar 14.2201 0 7.11005
259 1 Ar 14.2201 0 10.6651
260 1 Ar 14.2201 0 14.2201
261 1 Ar 14.2201 0 17.7751
262 1 Ar 14.2201 0 21.3301
263 1 Ar 14.2201 0 24.8852
264 1 Ar 14.2201 3.55502 0
265 1 Ar 14.2201 3.55502 3.55502
266 1 Ar 14.2201 3.55502 7.11005
267 1 Ar 14.2201 3.55502 10.6651
268 1 Ar 14.2201 3.55502 14.2201
269 1 Ar 14.2201 3.55502 17.7751
270 1 Ar 14.2201 3.55502 21.3301
271 1 Ar 14.2201 3.55502 24.8852
272 1 Ar 14.2201 7.11005 0
273 1 Ar 14.2201 7.11005 3.55502
274 1 Ar 14.2201 7.11005 7.11005
275 1 Ar 14.2201 7.11005 10.6651
276 1 Ar 14.2201 7.11005 14.2201
277 1 Ar 14.2201 7.11005 17.7751
278 1 Ar 14.2201 7.11005 21.3301
279 1 Ar 14.2201 7.11005 24.8852
280 1 Ar 14.2201 10.6651 0
281 1 Ar 14.2201 10.6651 3.55502
282 1 Ar 14.2201 10.6651 7.11005
283 1 Ar 14.2201 10.6651 10.6651
284 1 Ar 14.2201 10.6651 14.2201
285 1 Ar 14.2201 10.6651 17.7751
286 1 Ar 14.2201 10.6651 21.3301
287 1 Ar 14.2201 10.6651 24.8852
288 1 Ar 14.2201 14.2201 0
289 1 Ar 14.2201 14.2201 3.55502
290 1 Ar 14.2201 14.2201 7.11005
291 1 Ar 14.2201 14.2201 10.6651
292 1 Ar 14.2201 14.2201 14.2201
293 1 Ar 14.2201 14.2201 17.7751
294 1 Ar 14.2201 14.2201 21.3301
295 1 Ar 14.2201 14.2201 24.8852
296 1 Ar 14.2201 17.7751 0
297 1 Ar 14.2201 17.7751 3.55502
298 1 Ar 14.2201 17.7751 7.11005
299 1 Ar 14.2201 17.7751 10.6651
300 1 Ar 14.2201 17.7751 14.2201
301 1 Ar 14.2201 17.7751 17.7751
302 1 Ar 14.2201 17.7751 21.3301
303 1 Ar 14.2201 17.7751 24.8852
304 1 Ar 14.2201 21.3301 0
305 1 Ar 14.2201 21.3301 3.55502
306 1 Ar 14.2201 21.3301 7.11005
307 1 Ar 14.2201 21.3301 10.6651
308 1 Ar 14.2201 21.3301 14.2201
309 1 Ar 14.2201 21.3301 17.7751
310 1 Ar 14.2201 21.3301 21.3301
311 1 Ar 14.2201 21.3301 24.8852
312 1 Ar 14.2201 24.8852 0
313 1 Ar 14.2201 24.8852 3.55502
314 1 Ar 14.2201 24.8852 7.11005
315 1 Ar 14.2201 24.8852 10.6651
316 1 Ar 14.2201 24.8852 14.2201
317 1 Ar 14.2201 24.8852 17.7751
318 1 Ar 14.2201 24.8852 21.3301
319 1 Ar 14.2201 24.8852 24.8852
320 1 Ar 17.7751 0 0
321 1 Ar 17.7751 0 3.55502
322 1 Ar 17.7751 0 7.11005
323 1 Ar 17.7751 0 10.6651
324 1 Ar 17.7751 0 14.2201
325 1 Ar 17.7751 0 17.7751
326 1 Ar 17.7751 0 21.3301
327 1 Ar 17.7751 0 24.8852
328 1 Ar 17.7751 3.55502 0
329 1 Ar 17.7751 3.55502 3.55502
330 1 Ar 17.7751 3.55502 7.11005
331 1 Ar 17.7751 3.55502 10.6651
332 1 Ar 17.7751 3.55502 14.2201
333 1 Ar 17.7751 3.55502 17.7751
334 1 Ar 17.7751 3.55502 21.3301
335 1 Ar 17.7751 3.55502 24.8852
336 1 Ar 17.7751 7.11005 0
337 1 Ar 17.7751 7.11005 3.55502
338 1 Ar 17.7751 7.11005 7.11005
339 1 Ar 17.7751 7.11005 10.6651
340 1 Ar 17.7751 7.11005 14.2201
341 1 Ar 17.7751 7.11005 17.7751
342 1 Ar 17.7751 7.11005 21.3301
343 1 Ar 17.7751 7.11005 24.8852
344 1 Ar 17.7751 10.6651 0
345 1 Ar 17.7751 10.6651 3.55502
346 1 Ar 17.7751 10.6651 7.11005
347 1 Ar 17.7751 10.6651 10.6651
348 1 Ar 17.7751 10.6651 14.2201
349 1 Ar 17.7751 10.6651 17.7751
350 1 Ar 17.7751 10.6651 21.3301
351 1 Ar 17.7751 10.6651 24.8852
352 1 Ar 17.7751 14.2201 0
353 1 Ar 17.7751 14.2201 3.55502
354 1 Ar 17.7751 14.2201 7.11005
355 1 Ar 17.7751 14.2201 10.6651
356 1 Ar 17.7751 14.2201 14.2201
357 1 Ar 17.7751 14.2201 17.7751
358 1 Ar 17.7751 14.2201 21.3301
359 1 Ar 17.7751 14.2201 24.8852
360 1 Ar 17.7751 17.7751 0
361 1 Ar 17.7751 17.7751 3.55502
362 1 Ar 17.7751 17.7751 7.11005
363 1 Ar 17.7751 17.7751 10.6651
364 1 Ar 17.7751 17.7751 14.2201
365 1 Ar 17.7751 17.7751 17.7751
366 1 Ar 17.7751 17.7751 21.3301
367 1 Ar 17.7751 17.7751 24.8852
368 1 Ar 17.7751 21.3301 0
369 1 Ar 17.7751 21.3301 3.55502
370 1 Ar 17.7751 21.3301 7.11005
371 1 Ar 17.7751 21.3301 10.6651
372 1 Ar 17.7751 21.3301 14.2201
373 1 Ar 17.7751 21.3301 17.7751
374 1 Ar 17.7751 21.3301 21.3301
375 1 Ar 17.7751 21.3301 24.8852
376 1 Ar 17.7751 24.8852 0
377 1 Ar 17.7751 24.8852 3.55502
378 1 Ar 17.7751 24.8852 7.11005
379 1 Ar 17.7751 24.8852 10.6651
380 1 Ar 17.7751 24.8852 14.2201
381 1 Ar 17.7751 24.8852 17.7751
382 1 Ar 17.7751 24.8852 21.3301
383 1 Ar 17.7751 24.8852 24.8852
384 1 Ar 21.3301 0 0
385 1 Ar 21.3301 0 3.55502
386 1 Ar 21.3301 0 7.11005
387 1 Ar 21.3301 0 10.6651
388 1 Ar 21.3301 0 14.2201
389 1 Ar 21.3301 0 17.7751
390 1 Ar 21.3301 0 21.3301
391 1 Ar 21.3301 0 24.8852
392 1 Ar 21.3301 3.55502 0
393 1 Ar 21.3301 3.55502 3.55502
394 1 Ar 21.3301 3.55502 7.11005
395 1 Ar 21.3301 3.55502 10.6651
396 1 Ar 21.3301 3.55502 14.2201
397 1 Ar 21.3301 3.55502 17.7751
398 1 Ar 21.3301 3.55502 21.3301
399 1 Ar 21.3301 3.55502 24.8852
400 1 Ar 21.3301 7.11005 0
401 1 Ar 21.3301 7.11005 3.55502
402 1 Ar 21.3301 7.11005 7.11005
403 1 Ar 21.3301 7.11005 10.6651
404 1 Ar 21.3301 7.11005 14.2201
405 1 Ar 21.3301 7.11005 17.7751
406 1 Ar 21.3301 7.11005 21.3301
407 1 Ar 21.3301 7.11005 24.8852
408 1 Ar 21.3301 10.6651 0
409 1 Ar 21.3301 10.6651 3.55502
410 1 Ar 21.3301 10.6651 7.11005
411 1 Ar 21.3301 10.6651 10.6651
412 1 Ar 21.3301 10.6651 14.2201
413 1 Ar 21.3301 10.6651 17.7751
414 1 Ar 21.3301 10.6651 21.3301
415 1 Ar 21.3301 10.6651 24.8852
416 1 Ar 21.3301 14.2201 0
417 1 Ar 21.3301 14.2201 3.55502
418 1 Ar 21.3301 14.2201 7.11005
419 1 Ar 21.3301 14.2201 10.6651
420 1 Ar 21.3301 14.2201 14.2201
421 1 Ar 21.3301 14.2201 17.7751
422 1 Ar 21.3301 14.2201 21.3301
423 1 Ar 21.3301 14.2201 24.8852
424 1 Ar 21.3301 17.7751 0
425 1 Ar 21.3301 17.7751 3.55502
426 1 Ar 21.3301 17.7751 7.11005
427 1 Ar 21.3301 17.7751 10.6651
428 1 Ar 21.3301 17.7751 14.2201
429 1 Ar 21.3301 17.7751 17.7751
430 1 Ar 21.3301 17.7751 21.3301
431 1 Ar 21.3301 17.7751 24.8852
432 1 Ar 21.3301 21.3301 0
433 1 Ar 21.3301 21.3301 3.55502
434 1 Ar 21.3301 21.3301 7.11005
435 1 Ar 21.3301 21.3301 10.6651
436 1 Ar 21.3301 21.3301 14.2201
437 1 Ar 21.3301 21.3301 17.7751
438 1 Ar 21.3301 21.3301 21.3301
439 1 Ar 21.3301 21.3301 24.8852
440 1 Ar 21.3301 24.8852 0
441 1 Ar 21.3301 24.8852 3.55502
442 1 Ar 21.3301 24.8852 7.11005
443 1 Ar 21.3301 24.8852 10.6651
444 1 Ar 21.3301 24.8852 14.2201
445 1 Ar 21.3301 24.8852 17.7751
446 1 Ar 21.3301 24.8852 21.3301
447 1 Ar 21.3301 24.8852 24.8852
448 1 Ar 24.8852 0 0
449 1 Ar 24.8852 0 3.55502
450 1 Ar 24.8852 0 7.11005
451 1 Ar 24.8852 0 10.6651
452 1 Ar 24.8852 0 14.2201
453 1 Ar 24.8852 0 17.7751
454 1 Ar 24.8852 0 21.3301
455 1 Ar 24.8852 0 24.8852
456 1 Ar 24.8852 3.55502 0
457 1 Ar 24.8852 3.55502 3.55502
458 1 Ar 24.8852 3.55502 7.11005
459 1 Ar 24.8852 3.55502 10.6651
460 1 Ar 24.8852 3.55502 14.2201
461 1 Ar 24.8852 3.55502 17.7751
462 1 Ar 24.8852 3.55502 21.3301
463 1 Ar 24.8852 3.55502 24.8852
464 1 Ar 24.8852 7.11005 0
465 1 Ar 24.8852 7.11005 3.55502
466 1 Ar 24.8852 7.11005 7.11005
467 1 Ar 24.8852 7.11005 10.6651
468 1 Ar 24.8852 7.11005 14.2201
469 1 Ar 24.8852 7.11005 17.7751
470 1 Ar 24.8852 7.11005 21.3301
471 1 Ar 24.8852 7.11005 24.8852
472 1 Ar 24.8852 10.6651 0
473 1 Ar 24.8852 10.6651 3.55502
474 1 Ar 24.8852 10.6651 7.11005
475 1 Ar 24.8852 10.6651 10.6651
476 1 Ar 24.8852 10.6651 14.2201
477 1 Ar 24.8852 10.6651 17.7751
478 1 Ar 24.8852 10.6651 21.3301
479 1 Ar 24.8852 10.6651 24.8852
480 1 Ar 24.8852 14.2201 0
481 1 Ar 24.8852 14.2201 3.55502
482 1 Ar 24.8852 14.2201 7.11005
483 1 Ar 24.8852 14.2201 10.6651
484 1 Ar 24.8852 14.2201 14.2201
485 1 Ar 24.8852 14.2201 17.7751
486 1 Ar 24.8852 14.2201 21.3301
487 1 Ar 24.8852 14.2201 24.8852
488 1 Ar 24.8852 17.7751 0
489 1 Ar 24.8852 17.7751 3.55502
490 1 Ar 24.8852 17.7751 7.11005
491 1 Ar 24.8852 17.7751 10.6651
492 1 Ar 24.8852 17.7751 14.2201
493 1 Ar 24.8852 17.7751 17.7751
494 1 Ar 24.8852 17.7751 21.3301
495 1 Ar 24.8852 17.7751 24.8852
496 1 Ar 24.8852 21.3301 0
497 1 Ar 24.8852 21.3301 3.55502
498 1 Ar 24.8852 21.3301 7.11005
499 1 Ar 24.8852 21.3301 10.6651
ITEM: TIMESTEP
19999
ITEM: NUMBER OF ATOMS
500
ITEM: BOX BOUNDS pp pp pp
0 31.9952
0 31.9952
0 31.9952
ITEM: ATOMS id type element xu yu zu
0 1 Ar 28.6135 0.866999 30.3073
1 1 Ar 29.5194 31.9379 2.23297
2 1 Ar 31.4153 0.0452661 6.46541
3 1 Ar 31.0439 0.290088 9.9235
4 1 Ar 31.196 31.4497 14.543
5 1 Ar 30.1692 0.984733 17.839
6 1 Ar 0.399511 31.6643 21.58
7 1 Ar 31.4524 0.0611976 25.2763
8 1 Ar 31.4774 4.51157 31.3964
9 1 Ar 30.473 4.6866 3.29482
10 1 Ar 31.7365 3.67867 7.08468
11 1 Ar 31.8273 4.0283 11.228
12 1 Ar 31.654 2.63381 15.0827
13 1 Ar 31.9558 3.92863 18.3817
14 1 Ar 31.2912 3.17056 23.6444
15 1 Ar 30.2986 3.43662 27.0464
16 1 Ar 0.86242 8.04918 30.5028
17 1 Ar 0.215349 7.57913 2.21054
18 1 Ar 31.4542 6.9851 5.90934
19 1 Ar 31.561 6.87382 9.06771
20 1 Ar 31.302 7.24608 13.1323
21 1 Ar 31.1458 7.06109 17.1361
22 1 Ar 31.2385 6.79437 21.6686
23 1 Ar 31.7154 6.65253 26.251
24 1 Ar 31.3858 10.6802 0.262826
25 1 Ar 31.5452 11.0862 3.78693
26 1 Ar 0.360796 10.5192 7.46831
27 1 Ar 31.5789 10.4362 11.1476
28 1 Ar 0.602511 10.1281 14.3115
29 1 Ar 31.2726 10.6574 17.5743
30 1 Ar 31.1612 10.1326 21.4718
31 1 Ar 30.5418 10.0997 25.7889
32 1 Ar 31.448 15.0682 0.0718098
33 1 Ar 1.03307 14.2731 3.3544
34 1 Ar 31.682 14.0669 6.79907
35 1 Ar 30.2122 13.9079 10.5905
36 1 Ar 0.295889 13.6343 13.9582
37 1 Ar 31.7634 14.4682 17.2512
38 1 Ar 30.9591 14.5761 21.1497
39 1 Ar 0.0940352 14.0013 24.9658
40 1 Ar 29.3104 18.6625 0.192493
41 1 Ar 31.7223 17.8786 3.39352
42 1 Ar 31.5185 17.8255 7.62525
43 1 Ar 0.154055 17.2418 10.8858
44 1 Ar 31.473 17.6745 14.3626
45 1 Ar 0.14944 17.9252 17.9446
46 1 Ar 0.255144 18.2884 22.6236
47 1 Ar 0.424444 19.0457 26.3045
48 1 Ar 0.103545 22.4266 31.5161
49 1 Ar 31.598 21.6893 3.76144
50 1 Ar 31.0722 20.9715 6.80732
51 1 Ar 31.5677 21.0101 10.8504
52 1 Ar 0.0068696 22.1061 14.2659
53 1 Ar 0.2997 21.7742 18.2222
54 1 Ar 29.8421 22.7846 20.4427
55 1 Ar 31.3515 22.2332 23.829
56 1 Ar 28.7173 25.1034 30.5857
57 1 Ar 31.8297 25.0831 3.48425
58 1 Ar 31.8141 24.6085 7.05725
59 1 Ar 30.846 25.0803 10.7307
60 1 Ar 29.542 24.1438 16.2761
61 1 Ar 0.176079 25.0429 19.2332
62 1 Ar 0.681469 26.2995 23.3084
63 1 Ar 29.3731 24.2004 25.5818
64 1 Ar 3.46786 31.9381 29.6914
65 1 Ar 4.21903 31.2923 1.04489
66 1 Ar 3.89586 31.5478 6.67952
67 1 Ar 3.07513 0.0647703 10.4235
68 1 Ar 4.72787 0.121728 13.7442
69 1 Ar 2.24662 0.183491 16.3354
70 1 Ar 4.07469 31.7605 20.4543
71 1 Ar 3.7984 0.551747 24.1237
72 1 Ar 2.60211 2.39339 31.8086
73 1 Ar 3.43143 3.44375 3.18514
74 1 Ar 2.99027 3.04361 7.78515
75 1 Ar 3.88433 4.09987 10.9244
76 1 Ar 3.45034 3.32096 14.584
77 1 Ar 3.41541 3.62439 18.4435
78 1 Ar 3.00886 3.5994 22.315
79 1 Ar 3.24108 3.81991 25.688
80 1 Ar 3.85765 7.14546 0.105322
81 1 Ar 3.24982 7.07916 3.97905
82 1 Ar 2.76355 6.8259 7.45143
83 1 Ar 3.31676 7.56329 11.0762
84 1 Ar 2.98463 7.25217 14.195
85 1 Ar 3.51279 7.15434 17.6127
86 1 Ar 3.66638 6.99998 21.0077
87 1 Ar 3.17726 7.31755 25.9659
88 1 Ar 3.48797 11.1555 30.3336
89 1 Ar 3.00294 10.8379 2.44032
90 1 Ar 4.06452 9.98375 6.14487
91 1 Ar 3.41268 11.0791 9.71413
92 1 Ar 4.21034 11.6885 15.4635
93 1 Ar 2.89915 10.7794 18.4041
94 1 Ar 4.22129 10.416 21.5088
95 1 Ar 2.41774 10.6177 24.6201
96 1 Ar 3.05854 14.122 0.982149
97 1 Ar 4.43593 13.9135 4.21723
98 1 Ar 3.10739 13.5968 7.57905
99 1 Ar 2.63663 14.6325 10.9421
100 1 Ar 3.4231 15.1625 14.4104
101 1 Ar 3.48711 14.2633 18.1914
102 1 Ar 2.21703 14.6485 22.1449
103 1 Ar 3.71025 14.1956 25.2649
104 1 Ar 2.34246 17.5402 31.4484
105 1 Ar 3.218 17.3525 2.61236
106 1 Ar 3.48211 17.3823 6.36096
107 1 Ar 3.76208 17.9275 10.7754
108 1 Ar 2.86282 18.2693 14.0434
109 1 Ar 3.63813 18.3112 17.9232
110 1 Ar 3.85199 17.643 21.4382
111 1 Ar 3.50858 18.9167 24.6815
112 1 Ar 3.99062 21.3059 30.5843
113 1 Ar 3.52859 21.2199 2.96205
114 1 Ar 2.53946 21.9524 7.16078
115 1 Ar 3.08259 21.1713 11.0372
116 1 Ar 4.25402 21.3764 14.6359
117 1 Ar 4.16774 21.4021 17.9533
118 1 Ar 1.84468 21.5434 21.3732
119 1 Ar 2.99006 22.0287 25.8315
120 1 Ar 5.14023 24.6677 0.00141618
121 1 Ar 3.60641 24.2316 4.87494
122 1 Ar 3.31146 26.4069 7.55617
123 1 Ar 2.66619 24.5266 10.3482
124 1 Ar 3.04338 24.8909 13.8441
125 1 Ar 3.38999 26.0954 17.1803
126 1 Ar 3.8547 24.5473 22.3996
127 1 Ar 2.27516 25.8016 27.3087
128 1 Ar 7.06906 30.6164 31.0974
129 1 Ar 7.47927 30.1188 3.19254
130 1 Ar 7.58419 30.6743 6.69843
131 1 Ar 7.68764 0.494378 11.6762
132 1 Ar 7.19887 30.3943 14.4254
133 1 Ar 6.1508 31.4978 17.4133
134 1 Ar 7.56235 31.0597 20.7284
135 1 Ar 7.19059 31.3789 24.7291
136 1 Ar 6.39219 4.52101 0.229447
137 1 Ar 6.45368 2.39134 4.02425
138 1 Ar 6.45681 4.67833 7.14244
139 1 Ar 7.61138 3.91455 10.3824
140 1 Ar 7.31678 2.7667 14.2419
141 1 Ar 6.79374 2.85751 18.523
142 1 Ar 6.4261 2.82132 22.1153
143 1 Ar 7.37829 4.44788 26.2642
144 1 Ar 8.0213 7.77557 0.348498
145 1 Ar 6.59927 6.56699 4.07625
146 1 Ar 7.31403 8.12315 7.20893
147 1 Ar 7.83834 7.26906 10.4541
148 1 Ar 6.49559 7.02092 13.4763
149 1 Ar 7.66812 6.1413 17.0655
150 1 Ar 6.98814 6.18475 20.8454
151 1 Ar 6.77314 7.2837 23.9315
152 1 Ar 6.43454 11.1282 0.23655
153 1 Ar 6.99725 10.5561 4.17719
154 1 Ar 6.81893 11.4922 7.90796
155 1 Ar 6.06195 10.5354 11.7228
156 1 Ar 7.96616 10.2967 14.5191
157 1 Ar 6.23528 9.8414 17.7207
158 1 Ar 8.20053 10.9966 20.4137
159 1 Ar 6.86323 11.512 23.9837
160 1 Ar 8.77414 14.7279 29.0298
161 1 Ar 7.82514 13.7605 2.37271
162 1 Ar 7.41304 14.6433 6.49102
163 1 Ar 7.52872 13.8797 10.0853
164 1 Ar 6.63331 13.694 13.8945
165 1 Ar 6.97962 13.7075 17.8803
166 1 Ar 5.68774 13.5728 21.2527
167 1 Ar 7.36745 14.67 25.8212
168 1 Ar 6.58863 16.9889 0.619229
169 1 Ar 6.73778 17.7301 3.9774
170 1 Ar 7.05643 18.142 7.45843
171 1 Ar 7.01944 17.2094 10.8604
172 1 Ar 6.8908 17.8408 14.0091
173 1 Ar 7.25626 17.769 17.6153
174 1 Ar 7.54485 17.7431 20.9383
175 1 Ar 6.45242 18.0254 25.1267
176 1 Ar 7.57874 22.4132 0.0408867
177 1 Ar 7.41922 21.2147 3.53501
178 1 Ar 5.97876 21.8106 7.04511
179 1 Ar 7.55403 21.6356 10.5232
180 1 Ar 7.65568 21.8798 14.2622
181 1 Ar 7.88414 21.0768 18.5008
182 1 Ar 6.28963 21.7305 21.6688
183 1 Ar 6.97189 22.6585 25.3696
184 1 Ar 8.4558 26.8749 0.29495
185 1 Ar 7.27271 25.1559 4.29933
186 1 Ar 7.05836 25.716 8.50109
187 1 Ar 6.22523 24.6595 12.1406
188 1 Ar 7.14022 26.1634 15.2344
189 1 Ar 6.69115 24.4764 18.074
190 1 Ar 7.50186 25.3613 22.0499
191 1 Ar 5.75489 25.7711 25.9002
192 1 Ar 10.3465 31.841 31.6947
193 1 Ar 10.026 0.803739 3.28824
194 1 Ar 11.0476 30.1315 6.95254
195 1 Ar 11.2379 31.7111 10.0131
196 1 Ar 11.4582 31.4228 13.8895
197 1 Ar 10.7777 30.3727 17.6437
198 1 Ar 10.6484 31.4261 22.2544
199 1 Ar 11.0701 0.876213 25.3047
200 1 Ar 10.5821 4.01724 0.484153
201 1 Ar 11.3947 3.91583 3.85942
202 1 Ar 11.0506 3.55155 7.33957
203 1 Ar 10.8242 3.57811 11.4742
204 1 Ar 10.9705 3.96069 15.1032
205 1 Ar 10.2891 4.41053 19.6984
206 1 Ar 10.5313 3.63431 22.9232
207 1 Ar 11.3958 4.22365 26.1777
208 1 Ar 10.4555 6.16787 29.512
209 1 Ar 9.83805 7.40827 4.16832
210 1 Ar 10.7061 7.63486 7.76454
211 1 Ar 11.1912 7.34447 11.1569
212 1 Ar 11.2141 7.75559 14.7343
213 1 Ar 10.7016 7.4968 18.102
214 1 Ar 10.5727 7.88531 21.4946
215 1 Ar 9.88882 7.14319 25.7049
216 1 Ar 10.3716 10.0529 30.6014
217 1 Ar 10.4388 11.1688 3.15489
218 1 Ar 9.71906 10.3958 6.10748
219 1 Ar 9.57914 10.6146 10.1474
220 1 Ar 11.3843 11.0572 13.2003
221 1 Ar 10.2015 11.2872 17.567
222 1 Ar 11.1896 11.4393 22.1814
223 1 Ar 10.1806 10.9763 26.2713
224 1 Ar 11.8867 13.3195 0.277306
225 1 Ar 10.5318 15.1493 3.87186
226 1 Ar 11.0256 13.9936 6.95252
227 1 Ar 11.0352 14.0479 10.8301
228 1 Ar 10.1167 13.9732 14.6047
229 1 Ar 10.3602 14.87 18.2179
230 1 Ar 9.67793 14.5959 21.4983
231 1 Ar 11.1298 14.6178 24.64
232 1 Ar 10.5275 17.2311 30.7489
233 1 Ar 9.81578 18.2199 1.91087
234 1 Ar 10.2499 17.9858 6.7664
235 1 Ar 10.7251 17.4203 10.6154
236 1 Ar 10.2796 18.3617 13.937
237 1 Ar 10.4661 18.3109 17.203
238 1 Ar 11.4838 19.2869 21.1766
239 1 Ar 9.85953 17.5179 26.0248
240 1 Ar 10.8796 21.5245 31.4321
241 1 Ar 11.099 21.7621 4.38345
242 1 Ar 9.32356 22.3988 7.36315
243 1 Ar 11.4007 21.1259 10.2102
244 1 Ar 10.9065 21.797 13.8304
245 1 Ar 11.005 22.1983 18.3781
246 1 Ar 10.8515 22.6687 22.4392
247 1 Ar 10.9665 21.3643 25.4658
248 1 Ar 9.87547 24.6984 29.3219
249 1 Ar 11.3017 24.7159 2.48047
250 1 Ar 10.2605 26.0455 6.49752
251 1 Ar 10.3622 24.4697 10.8987
252 1 Ar 10.5985 25.1412 14.2032
253 1 Ar 9.94603 25.7496 17.6583
254 1 Ar 11.319 25.9275 21.6371
255 1 Ar 11.0305 26.5849 26.3072
256 1 Ar 14.0859 0.662662 29.6474
257 1 Ar 13.0165 31.5657 2.17142
258 1 Ar 14.0089 0.262744 6.45759
259 1 Ar 14.485 30.6203 10.8797
260 1 Ar 15.0348 30.0268 15.0457
261 1 Ar 14.0921 0.411363 17.6155
262 1 Ar 13.9463 0.786894 21.8194
263 1 Ar 13.8688 30.3314 25.3341
264 1 Ar 14.4153 4.42682 0.0502334
265 1 Ar 14.8056 2.92578 3.33905
266 1 Ar 14.5635 4.11744 6.65444
267 1 Ar 14.1266 2.73859 9.68125
268 1 Ar 13.6976 2.19492 13.6567
269 1 Ar 13.4789 3.70942 17.4009
270 1 Ar 14.6335 4.13435 21.3365
271 1 Ar 15.2779 2.71786 25.4589
272 1 Ar 13.5593 7.74965 31.6827
273 1 Ar 13.4328 7.08812 3.20275
274 1 Ar 13.7213 7.82399 6.46095
275 1 Ar 14.8558 7.49145 10.5959
276 1 Ar 14.3259 6.18081 14.3126
277 1 Ar 14.105 7.22648 17.9609
278 1 Ar 14.6449 7.77004 21.3144
279 1 Ar 14.1228 6.37025 24.8016
280 1 Ar 14.6723 11.1461 31.1859
281 1 Ar 14.2347 10.1728 3.63747
282 1 Ar 13.902 11.1923 7.36514
283 1 Ar 13.4024 10.6231 10.7457
284 1 Ar 14.4514 10.9512 14.4895
285 1 Ar 13.7151 10.8112 18.3287
286 1 Ar 14.757 11.4642 21.5622
287 1 Ar 13.5443 10.41 25.0598
288 1 Ar 15.1955 14.6445 0.855669
289 1 Ar 14.1484 13.9182 3.65664
290 1 Ar 14.6551 14.5529 7.04296
291 1 Ar 14.191 14.0083 10.5846
292 1 Ar 14.1324 14.1867 14.0982
293 1 Ar 14.8941 14.1668 18.0886
294 1 Ar 12.965 14.8972 21.3969
295 1 Ar 15.1082 13.5736 24.2223
296 1 Ar 13.9549 17.566 30.7474
297 1 Ar 14.0934 17.4557 3.68136
298 1 Ar 13.7547 18.0253 7.57684
299 1 Ar 14.2175 17.4391 10.9645
300 1 Ar 13.3897 17.511 14.8567
301 1 Ar 13.6202 17.8026 18.0743
302 1 Ar 15.0582 18.1043 21.7354
303 1 Ar 14.2094 17.5281 24.9707
304 1 Ar 14.13 20.6777 0.336263
305 1 Ar 14.7514 21.7176 3.62403
306 1 Ar 13.7441 21.7567 7.08583
307 1 Ar 14.4805 22.3362 10.3757
308 1 Ar 14.429 20.7242 13.8347
309 1 Ar 14.0257 21.7558 17.1095
310 1 Ar 14.768 21.2676 20.5338
311 1 Ar 14.1483 21.1544 24.2049
312 1 Ar 13.4407 24.6595 30.7282
313 1 Ar 14.5926 26.0469 3.30147
314 1 Ar 14.072 25.4916 7.56895
315 1 Ar 13.8783 26.2072 10.8062
316 1 Ar 14.0465 23.9543 14.3227
317 1 Ar 13.3475 25.72 18.3404
318 1 Ar 14.4001 24.324 21.9935
319 1 Ar 14.4413 24.4318 26.371
320 1 Ar 17.763 30.1981 0.650122
321 1 Ar 17.1461 0.575084 3.99872
322 1 Ar 17.5043 31.8435 7.33182
323 1 Ar 17.6407 0.125808 11.216
324 1 Ar 18.4399 31.1139 14.6338
325 1 Ar 17.346 31.636 18.019
326 1 Ar 17.7667 31.632 21.6407
327 1 Ar 18.5083 0.357327 24.8329
328 1 Ar 17.7799 3.33705 30.0074
329 1 Ar 18.2222 3.65742 2.46806
330 1 Ar 17.8445 3.4215 7.67388
331 1 Ar 16.8506 4.05513 11.5337
332 1 Ar 16.7094 3.57104 14.9344
333 1 Ar 16.9249 3.27237 18.655
334 1 Ar 18.5358 2.9455 21.8322
335 1 Ar 18.862 4.25573 27.1496
336 1 Ar 17.4504 6.70962 31.0518
337 1 Ar 16.7849 6.35491 4.08919
338 1 Ar 17.4381 6.91719 7.14679
339 1 Ar 18.4642 7.07767 10.2486
340 1 Ar 17.5466 7.16632 13.8323
341 1 Ar 17.6377 6.57571 17.6945
342 1 Ar 17.7306 6.31038 21.1637
343 1 Ar 17.411 7.27626 24.5554
344 1 Ar 17.7167 10.2633 0.695045
345 1 Ar 17.9785 9.82732 4.15599
346 1 Ar 17.9099 10.7406 7.88918
347 1 Ar 18.116 10.3364 11.2924
348 1 Ar 17.6501 10.9388 14.9751
349 1 Ar 17.3128 11.3082 18.2305
350 1 Ar 18.0418 9.66422 21.0869
351 1 Ar 17.7117 10.9933 25.06
352 1 Ar 17.6453 13.2196 29.9949
353 1 Ar 18.4335 13.8045 2.93014
354 1 Ar 18.583 14.0964 6.7225
355 1 Ar 18.2806 13.6751 9.94503
356 1 Ar 17.7039 14.1263 12.9156
357 1 Ar 18.3185 14.279 17.0324
358 1 Ar 17.7858 13.7871 21.2025
359 1 Ar 17.96 14.3641 25.8592
360 1 Ar 17.5371 17.7747 0.318112
361 1 Ar 17.9689 17.5621 4.08146
362 1 Ar 17.0961 17.7116 7.39545
363 1 Ar 18.9554 18.3585 10.3502
364 1 Ar 18.151 18.4137 15.0675
365 1 Ar 17.2945 18.229 18.3786
366 1 Ar 18.7607 17.6429 21.9152
367 1 Ar 17.5393 18.5239 25.9287
368 1 Ar 17.9914 21.1308 31.318
369 1 Ar 18.1558 20.7127 3.52414
370 1 Ar 17.3136 21.4378 7.24383
371 1 Ar 17.8876 22.1024 11.3943
372 1 Ar 19.4807 22.314 14.7497
373 1 Ar 17.8592 22.2535 18.1324
374 1 Ar 17.691 21.0473 21.8163
375 1 Ar 17.1706 22.092 25.2599
376 1 Ar 17.9476 24.094 29.8552
377 1 Ar 17.8621 24.9386 2.19587
378 1 Ar 17.6381 25.207 5.9273
379 1 Ar 18.8756 25.3523 10.7532
380 1 Ar 16.9429 26.085 13.9667
381 1 Ar 17.1217 26.102 18.9171
382 1 Ar 19.0725 26.3168 21.8823
383 1 Ar 18.7217 25.8401 25.6444
384 1 Ar 21.4771 0.513385 30.8843
385 1 Ar 20.7401 0.0797304 3.48221
386 1 Ar 20.8403 30.9262 6.83099
387 1 Ar 20.9212 0.774228 10.4543
388 1 Ar 21.5094 30.3332 13.5127
389 1 Ar 21.1063 0.206421 16.8593
390 1 Ar 21.3369 0.0985542 21.3937
391 1 Ar 21.4588 30.1858 24.3345
392 1 Ar 22.2253 3.87508 31.1763
393 1 Ar 21.2818 3.29067 3.82313
394 1 Ar 21.907 3.26263 7.37109
395 1 Ar 20.8619 4.29231 11.3591
396 1 Ar 22.7222 2.53097 14.2196
397 1 Ar 21.9694 3.19614 18.8448
398 1 Ar 20.8483 5.16591 22.3281
399 1 Ar 22.2561 3.90245 25.3072
400 1 Ar 22.3277 7.51763 31.8976
401 1 Ar 20.9445 6.74676 3.2496
402 1 Ar 21.4956 6.80436 6.91846
403 1 Ar 21.935 7.76941 10.5514
404 1 Ar 22.0113 6.55612 14.275
405 1 Ar 23.1684 7.02661 17.5257
406 1 Ar 20.8549 8.04128 20.0949
407 1 Ar 20.5367 6.77283 25.7783
408 1 Ar 22.0649 10.7896 0.0137286
409 1 Ar 21.291 11.3656 4.14864
410 1 Ar 21.5562 10.6621 7.45156
411 1 Ar 21.8062 11.3302 11.1671
412 1 Ar 20.6049 9.70566 13.742
413 1 Ar 20.9335 10.9133 18.0973
414 1 Ar 21.841 11.1133 21.1818
415 1 Ar 21.6291 10.476 24.8263
416 1 Ar 21.1064 14.3356 0.141942
417 1 Ar 22.2084 14.7228 3.66241
418 1 Ar 22.0265 14.3235 7.1152
419 1 Ar 21.3222 14.8694 10.9607
420 1 Ar 21.082 12.892 14.3396
421 1 Ar 21.9977 14.4972 18.0538
422 1 Ar 20.984 14.4134 21.2946
423 1 Ar 21.5141 14.9707 25.0758
424 1 Ar 21.295 17.9453 31.4828
425 1 Ar 22.5131 18.3878 3.17562
426 1 Ar 20.8143 17.7864 6.35697
427 1 Ar 22.3604 18.2015 9.93653
428 1 Ar 21.8487 17.3435 13.7759
429 1 Ar 21.0304 17.6666 17.4413
430 1 Ar 21.9458 18.2325 21.4794
431 1 Ar 21.4233 18.2843 24.918
432 1 Ar 21.2348 21.9695 31.0928
433 1 Ar 21.8662 22.2032 3.87492
434 1 Ar 21.4248 21.1204 7.9286
435 1 Ar 21.6011 21.4525 11.5891
436 1 Ar 23.2812 20.7695 14.4431
437 1 Ar 21.9906 21.3795 17.5843
438 1 Ar 21.0864 21.5094 21.5211
439 1 Ar 20.2222 21.5007 26.4459
440 1 Ar 20.3764 26.0335 0.0729491
441 1 Ar 21.5591 25.337 3.23797
442 1 Ar 21.5213 24.733 6.75669
443 1 Ar 23.3709 25.0948 11.0353