ITEM: TIMESTEP
-1
ITEM: NUMBER OF ATOMS
500
ITEM: BOX BOUNDS pp pp pp
0 29.0696
0 29.0696
0 29.0696
ITEM: ATOMS id type element xu yu zu
0 1 Ar 0 0 0
1 1 Ar 0 0 3.22995
2 1 Ar 0 0 6.45991
3 1 Ar 0 0 9.68986
4 1 Ar 0 0 12.9198
5 1 Ar 0 0 16.1498
6 1 Ar 0 0 19.3797
7 1 Ar 0 0 22.6097
8 1 Ar 0 3.22995 0
9 1 Ar 0 3.22995 3.22995
10 1 Ar 0 3.22995 6.45991
11 1 Ar 0 3.22995 9.68986
12 1 Ar 0 3.22995 12.9198
13 1 Ar 0 3.22995 16.1498
14 1 Ar 0 3.22995 19.3797
15 1 Ar 0 3.22995 22.6097
16 1 Ar 0 6.45991 0
17 1 Ar 0 6.45991 3.22995
18 1 Ar 0 6.45991 6.45991
19 1 Ar 0 6.45991 9.68986
20 1 Ar 0 6.45991 12.9198
21 1 Ar 0 6.45991 16.1498
22 1 Ar 0 6.45991 19.3797
23 1 Ar 0 6.45991 22.6097
24 1 Ar 0 9.68986 0
25 1 Ar 0 9.68986 3.22995
26 1 Ar 0 9.68986 6.45991
27 1 Ar 0 9.68986 9.68986
28 1 Ar 0 9.68986 12.9198
29 1 Ar 0 9.68986 16.1498
30 1 Ar 0 9.68986 19.3797
31 1 Ar 0 9.68986 22.6097
32 1 Ar 0 12.9198 0
33 1 Ar 0 12.9198 3.22995
34 1 Ar 0 12.9198 6.45991
35 1 Ar 0 12.9198 9.68986
36 1 Ar 0 12.9198 12.9198
37 1 Ar 0 12.9198 16.1498
38 1 Ar 0 12.9198 19.3797
39 1 Ar 0 12.9198 22.6097
40 1 Ar 0 16.1498 0
41 1 Ar 0 16.1498 3.22995
42 1 Ar 0 16.1498 6.45991
43 1 Ar 0 16.1498 9.68986
44 1 Ar 0 16.1498 12.9198
45 1 Ar 0 16.1498 16.1498
46 1 Ar 0 16.1498 19.3797
47 1 Ar 0 16.1498 22.6097
48 1 Ar 0 19.3797 0
49 1 Ar 0 19.3797 3.22995
50 1 Ar 0 19.3797 6.45991
51 1 Ar 0 19.3797 9.68986
52 1 Ar 0 19.3797 12.9198
53 1 Ar 0 19.3797 16.1498
54 1 Ar 0 19.3797 19.3797
55 1 Ar 0 19.3797 22.6097
56 1 Ar 0 22.6097 0
57 1 Ar 0 22.6097 3.22995
58 1 Ar 0 22.6097 6.45991
59 1 Ar 0 22.6097 9.68986
60 1 Ar 0 22.6097 12.9198
61 1 Ar 0 22.6097 16.1498
62 1 Ar 0 22.6097 19.3797
63 1 Ar 0 22.6097 22.6097
64 1 Ar 3.22995 0 0
65 1 Ar 3.22995 0 3.22995
66 1 Ar 3.22995 0 6.45991
67 1 Ar 3.22995 0 9.68986
68 1 Ar 3.22995 0 12.9198
69 1 Ar 3.22995 0 16.1498
70 1 Ar 3.22995 0 19.3797
71 1 Ar 3.22995 0 22.6097
72 1 Ar 3.22995 3.22995 0
73 1 Ar 3.22995 3.22995 3.22995
74 1 Ar 3.22995 3.22995 6.45991
75 1 Ar 3.22995 3.22995 9.68986
76 1 Ar 3.22995 3.22995 12.9198
77 1 Ar 3.22995 3.22995 16.1498
78 1 Ar 3.22995 3.22995 19.3797
79 1 Ar 3.22995 3.22995 22.6097
80 1 Ar 3.22995 6.45991 0
81 1 Ar 3.22995 6.45991 3.22995
82 1 Ar 3.22995 6.45991 6.45991
83 1 Ar 3.22995 6.45991 9.68986
84 1 Ar 3.22995 6.45991 12.9198
85 1 Ar 3.22995 6.45991 16.1498
86 1 Ar 3.22995 6.45991 19.3797
87 1 Ar 3.22995 6.45991 22.6097
88 1 Ar 3.22995 9.68986 0
89 1 Ar 3.22995 9.68986 3.22995
90 1 Ar 3.22995 9.68986 6.45991
91 1 Ar 3.22995 9.68986 9.68986
92 1 Ar 3.22995 9.68986 12.9198
93 1 Ar 3.22995 9.68986 16.1498
94 1 Ar 3.22995 9.68986 19.3797
95 1 Ar 3.22995 9.68986 22.6097
96 1 Ar 3.22995 12.9198 0
97 1 Ar 3.22995 12.9198 3.22995
98 1 Ar 3.22995 12.9198 6.45991
99 1 Ar 3.22995 12.9198 9.68986
100 1 Ar 3.22995 12.9198 12.9198
101 1 Ar 3.22995 12.9198 16.1498
102 1 Ar 3.22995 12.9198 19.3797
103 1 Ar 3.22995 12.9198 22.6097
104 1 Ar 3.22995 16.1498 0
105 1 Ar 3.22995 16.1498 3.22995
106 1 Ar 3.22995 16.1498 6.45991
107 1 Ar 3.22995 16.1498 9.68986
108 1 Ar 3.22995 16.1498 12.9198
109 1 Ar 3.22995 16.1498 16.1498
110 1 Ar 3.22995 16.1498 19.3797
111 1 Ar 3.22995 16.1498 22.6097
112 1 Ar 3.22995 19.3797 0
113 1 Ar 3.22995 19.3797 3.22995
114 1 Ar 3.22995 19.3797 6.45991
115 1 Ar 3.22995 19.3797 9.68986
116 1 Ar 3.22995 19.3797 12.9198
117 1 Ar 3.22995 19.3797 16.1498
118 1 Ar 3.22995 19.3797 19.3797
119 1 Ar 3.22995 19.3797 22.6097
120 1 Ar 3.22995 22.6097 0
121 1 Ar 3.22995 22.6097 3.22995
122 1 Ar 3.22995 22.6097 6.45991
123 1 Ar 3.22995 22.6097 9.68986
124 1 Ar 3.22995 22.6097 12.9198
125 1 Ar 3.22995 22.6097 16.1498
126 1 Ar 3.22995 22.6097 19.3797
127 1 Ar 3.22995 22.6097 22.6097
128 1 Ar 6.45991 0 0
129 1 Ar 6.45991 0 3.22995
130 1 Ar 6.45991 0 6.45991
131 1 Ar 6.45991 0 9.68986
132 1 Ar 6.45991 0 12.9198
133 1 Ar 6.45991 0 16.1498
134 1 Ar 6.45991 0 19.3797
135 1 Ar 6.45991 0 22.6097
136 1 Ar 6.45991 3.22995 0
137 1 Ar 6.45991 3.22995 3.22995
138 1 Ar 6.45991 3.22995 6.45991
139 1 Ar 6.45991 3.22995 9.68986
140 1 Ar 6.45991 3.22995 12.9198
141 1 Ar 6.45991 3.22995 16.1498
142 1 Ar 6.45991 3.22995 19.3797
143 1 Ar 6.45991 3.22995 22.6097
144 1 Ar 6.45991 6.45991 0
145 1 Ar 6.45991 6.45991 3.22995
146 1 Ar 6.45991 6.45991 6.45991
147 1 Ar 6.45991 6.45991 9.68986
148 1 Ar 6.45991 6.45991 12.9198
149 1 Ar 6.45991 6.45991 16.1498
150 1 Ar 6.45991 6.45991 19.3797
151 1 Ar 6.45991 6.45991 22.6097
152 1 Ar 6.45991 9.68986 0
153 1 Ar 6.45991 9.68986 3.22995
154 1 Ar 6.45991 9.68986 6.45991
155 1 Ar 6.45991 9.68986 9.68986
156 1 Ar 6.45991 9.68986 12.9198
157 1 Ar 6.45991 9.68986 16.1498
158 1 Ar 6.45991 9.68986 19.3797
159 1 Ar 6.45991 9.68986 22.6097
160 1 Ar 6.45991 12.9198 0
161 1 Ar 6.45991 12.9198 3.22995
162 1 Ar 6.45991 12.9198 6.45991
163 1 Ar 6.45991 12.9198 9.68986
164 1 Ar 6.45991 12.9198 12.9198
165 1 Ar 6.45991 12.9198 16.1498
166 1 Ar 6.45991 12.9198 19.3797
167 1 Ar 6.45991 12.9198 22.6097
168 1 Ar 6.45991 16.1498 0
169 1 Ar 6.45991 16.1498 3.22995
170 1 Ar 6.45991 16.1498 6.45991
171 1 Ar 6.45991 16.1498 9.68986
172 1 Ar 6.45991 16.1498 12.9198
173 1 Ar 6.45991 16.1498 16.1498
174 1 Ar 6.45991 16.1498 19.3797
175 1 Ar 6.45991 16.1498 22.6097
176 1 Ar 6.45991 19.3797 0
177 1 Ar 6.45991 19.3797 3.22995
178 1 Ar 6.45991 19.3797 6.45991
179 1 Ar 6.45991 19.3797 9.68986
180 1 Ar 6.45991 19.3797 12.9198
181 1 Ar 6.45991 19.3797 16.1498
182 1 Ar 6.45991 19.3797 19.3797
183 1 Ar 6.45991 19.3797 22.6097
184 1 Ar 6.45991 22.6097 0
185 1 Ar 6.45991 22.6097 3.22995
186 1 Ar 6.45991 22.6097 6.45991
187 1 Ar 6.45991 22.6097 9.68986
188 1 Ar 6.45991 22.6097 12.9198
189 1 Ar 6.45991 22.6097 16.1498
190 1 Ar 6.45991 22.6097 19.3797
191 1 Ar 6.45991 22.6097 22.6097
192 1 Ar 9.68986 0 0
193 1 Ar 9.68986 0 3.22995
194 1 Ar 9.68986 0 6.45991
195 1 Ar 9.68986 0 9.68986
196 1 Ar 9.68986 0 12.9198
197 1 Ar 9.68986 0 16.1498
198 1 Ar 9.68986 0 19.3797
199 1 Ar 9.68986 0 22.6097
200 1 Ar 9.68986 3.22995 0
201 1 Ar 9.68986 3.22995 3.22995
202 1 Ar 9.68986 3.22995 6.45991
203 1 Ar 9.68986 3.22995 9.68986
204 1 Ar 9.68986 3.22995 12.9198
205 1 Ar 9.68986 3.22995 16.1498
206 1 Ar 9.68986 3.22995 19.3797
207 1 Ar 9.68986 3.22995 22.6097
208 1 Ar 9.68986 6.45991 0
209 1 Ar 9.68986 6.45991 3.22995
210 1 Ar 9.68986 6.45991 6.45991
211 1 Ar 9.68986 6.45991 9.68986
212 1 Ar 9.68986 6.45991 12.9198
213 1 Ar 9.68986 6.45991 16.1498
214 1 Ar 9.68986 6.45991 19.3797
215 1 Ar 9.68986 6.45991 22.6097
216 1 Ar 9.68986 9.68986 0
217 1 Ar 9.68986 9.68986 3.22995
218 1 Ar 9.68986 9.68986 6.45991
219 1 Ar 9.68986 9.68986 9.68986
220 1 Ar 9.68986 9.68986 12.9198
221 1 Ar 9.68986 9.68986 16.1498
222 1 Ar 9.68986 9.68986 19.3797
223 1 Ar 9.68986 9.68986 22.6097
224 1 Ar 9.68986 12.9198 0
225 1 Ar 9.68986 12.9198 3.22995
226 1 Ar 9.68986 12.9198 6.45991
227 1 Ar 9.68986 12.9198 9.68986
228 1 Ar 9.68986 12.9198 12.9198
229 1 Ar 9.68986 12.9198 16.1498
230 1 Ar 9.68986 12.9198 19.3797
231 1 Ar 9.68986 12.9198 22.6097
232 1 Ar 9.68986 16.1498 0
233 1 Ar 9.68986 16.1498 3.22995
234 1 Ar 9.68986 16.1498 6.45991
235 1 Ar 9.68986 16.1498 9.68986
236 1 Ar 9.68986 16.1498 12.9198
237 1 Ar 9.68986 16.1498 16.1498
238 1 Ar 9.68986 16.1498 19.3797
239 1 Ar 9.68986 16.1498 22.6097
240 1 Ar 9.68986 19.3797 0
241 1 Ar 9.68986 19.3797 3.22995
242 1 Ar 9.68986 19.3797 6.45991
243 1 Ar 9.68986 19.3797 9.68986
244 1 Ar 9.68986 19.3797 12.9198
245 1 Ar 9.68986 19.3797 16.1498
246 1 Ar 9.68986 19.3797 19.3797
247 1 Ar 9.68986 19.3797 22.6097
248 1 Ar 9.68986 22.6097 0
249 1 Ar 9.68986 22.6097 3.22995
250 1 Ar 9.68986 22.6097 6.45991
251 1 Ar 9.68986 22.6097 9.68986
252 1 Ar 9.68986 22.6097 12.9198
253 1 Ar 9.68986 22.6097 16.1498
254 1 Ar 9.68986 22.6097 19.3797
255 1 Ar 9.68986 22.6097 22.6097
256 1 Ar 12.9198 0 0
257 1 Ar 12.9198 0 3.22995
258 1 Ar 12.9198 0 6.45991
259 1 Ar 12.9198 0 9.68986
260 1 Ar 12.9198 0 12.9198
261 1 Ar 12.9198 0 16.1498
262 1 Ar 12.9198 0 19.3797
263 1 Ar 12.9198 0 22.6097
264 1 Ar 12.9198 3.22995 0
265 1 Ar 12.9198 3.22995 3.22995
266 1 Ar 12.9198 3.22995 6.45991
267 1 Ar 12.9198 3.22995 9.68986
268 1 Ar 12.9198 3.22995 12.9198
269 1 Ar 12.9198 3.22995 16.1498
270 1 Ar 12.9198 3.22995 19.3797
271 1 Ar 12.9198 3.22995 22.6097
272 1 Ar 12.9198 6.45991 0
273 1 Ar 12.9198 6.45991 3.22995
274 1 Ar 12.9198 6.45991 6.45991
275 1 Ar 12.9198 6.45991 9.68986
276 1 Ar 12.9198 6.45991 12.9198
277 1 Ar 12.9198 6.45991 16.1498
278 1 Ar 12.9198 6.45991 19.3797
279 1 Ar 12.9198 6.45991 22.6097
280 1 Ar 12.9198 9.68986 0
281 1 Ar 12.9198 9.68986 3.22995
282 1 Ar 12.9198 9.68986 6.45991
283 1 Ar 12.9198 9.68986 9.68986
284 1 Ar 12.9198 9.68986 12.9198
285 1 Ar 12.9198 9.68986 16.1498
286 1 Ar 12.9198 9.68986 19.3797
287 1 Ar 12.9198 9.68986 22.6097
288 1 Ar 12.9198 12.9198 0
289 1 Ar 12.9198 12.9198 3.22995
290 1 Ar 12.9198 12.9198 6.45991
291 1 Ar 12.9198 12.9198 9.68986
292 1 Ar 12.9198 12.9198 12.9198
293 1 Ar 12.9198 12.9198 16.1498
294 1 Ar 12.9198 12.9198 19.3797
295 1 Ar 12.9198 12.9198 22.6097
296 1 Ar 12.9198 16.1498 0
297 1 Ar 12.9198 16.1498 3.22995
298 1 Ar 12.9198 16.1498 6.45991
299 1 Ar 12.9198 16.1498 9.68986
300 1 Ar 12.9198 16.1498 12.9198
301 1 Ar 12.9198 16.1498 16.1498
302 1 Ar 12.9198 16.1498 19.3797
303 1 Ar 12.9198 16.1498 22.6097
304 1 Ar 12.9198 19.3797 0
305 1 Ar 12.9198 19.3797 3.22995
306 1 Ar 12.9198 19.3797 6.45991
307 1 Ar 12.9198 19.3797 9.68986
308 1 Ar 12.9198 19.3797 12.9198
309 1 Ar 12.9198 19.3797 16.1498
310 1 Ar 12.9198 19.3797 19.3797
311 1 Ar 12.9198 19.3797 22.6097
312 1 Ar 12.9198 22.6097 0
313 1 Ar 12.9198 22.6097 3.22995
314 1 Ar 12.9198 22.6097 6.45991
315 1 Ar 12.9198 22.6097 9.68986
316 1 Ar 12.9198 22.6097 12.9198
317 1 Ar 12.9198 22.6097 16.1498
318 1 Ar 12.9198 22.6097 19.3797
319 1 Ar 12.9198 22.6097 22.6097
320 1 Ar 16.1498 0 0
321 1 Ar 16.1498 0 3.22995
322 1 Ar 16.1498 0 6.45991
323 1 Ar 16.1498 0 9.68986
324 1 Ar 16.1498 0 12.9198
325 1 Ar 16.1498 0 16.1498
326 1 Ar 16.1498 0 19.3797
327 1 Ar 16.1498 0 22.6097
328 1 Ar 16.1498 3.22995 0
329 1 Ar 16.1498 3.22995 3.22995
330 1 Ar 16.1498 3.22995 6.45991
331 1 Ar 16.1498 3.22995 9.68986
332 1 Ar 16.1498 3.22995 12.9198
333 1 Ar 16.1498 3.22995 16.1498
334 1 Ar 16.1498 3.22995 19.3797
335 1 Ar 16.1498 3.22995 22.6097
336 1 Ar 16.1498 6.45991 0
337 1 Ar 16.1498 6.45991 3.22995
338 1 Ar 16.1498 6.45991 6.45991
339 1 Ar 16.1498 6.45991 9.68986
340 1 Ar 16.1498 6.45991 12.9198
341 1 Ar 16.1498 6.45991 16.1498
342 1 Ar 16.1498 6.45991 19.3797
343 1 Ar 16.1498 6.45991 22.6097
344 1 Ar 16.1498 9.68986 0
345 1 Ar 16.1498 9.68986 3.22995
346 1 Ar 16.1498 9.68986 6.45991
347 1 Ar 16.1498 9.68986 9.68986
348 1 Ar 16.1498 9.68986 12.9198
349 1 Ar 16.1498 9.68986 16.1498
350 1 Ar 16.1498 9.68986 19.3797
351 1 Ar 16.1498 9.68986 22.6097
352 1 Ar 16.1498 12.9198 0
353 1 Ar 16.1498 12.9198 3.22995
354 1 Ar 16.1498 12.9198 6.45991
355 1 Ar 16.1498 12.9198 9.68986
356 1 Ar 16.1498 12.9198 12.9198
357 1 Ar 16.1498 12.9198 16.1498
358 1 Ar 16.1498 12.9198 19.3797
359 1 Ar 16.1498 12.9198 22.6097
360 1 Ar 16.1498 16.1498 0
361 1 Ar 16.1498 16.1498 3.22995
362 1 Ar 16.1498 16.1498 6.45991
363 1 Ar 16.1498 16.1498 9.68986
364 1 Ar 16.1498 16.1498 12.9198
365 1 Ar 16.1498 16.1498 16.1498
366 1 Ar 16.1498 16.1498 19.3797
367 1 Ar 16.1498 16.1498 22.6097
368 1 Ar 16.1498 19.3797 0
369 1 Ar 16.1498 19.3797 3.22995
370 1 Ar 16.1498 19.3797 6.45991
371 1 Ar 16.1498 19.3797 9.68986
372 1 Ar 16.1498 19.3797 12.9198
373 1 Ar 16.1498 19.3797 16.1498
374 1 Ar 16.1498 19.3797 19.3797
375 1 Ar 16.1498 19.3797 22.6097
376 1 Ar 16.1498 22.6097 0
377 1 Ar 16.1498 22.6097 3.22995
378 1 Ar 16.1498 22.6097 6.45991
379 1 Ar 16.1498 22.6097 9.68986
380 1 Ar 16.1498 22.6097 12.9198
381 1 Ar 16.1498 22.6097 16.1498
382 1 Ar 16.1498 22.6097 19.3797
383 1 Ar 16.1498 22.6097 22.6097
384 1 Ar 19.3797 0 0
385 1 Ar 19.3797 0 3.22995
386 1 Ar 19.3797 0 6.45991
387 1 Ar 19.3797 0 9.68986
388 1 Ar 19.3797 0 12.9198
389 1 Ar 19.3797 0 16.1498
390 1 Ar 19.3797 0 19.3797
391 1 Ar 19.3797 0 22.6097
392 1 Ar 19.3797 3.22995 0
393 1 Ar 19.3797 3.22995 3.22995
394 1 Ar 19.3797 3.22995 6.45991
395 1 Ar 19.3797 3.22995 9.68986
396 1 Ar 19.3797 3.22995 12.9198
397 1 Ar 19.3797 3.22995 16.1498
398 1 Ar 19.3797 3.22995 19.3797
399 1 Ar 19.3797 3.22995 22.6097
400 1 Ar 19.3797 6.45991 0
401 1 Ar 19.3797 6.45991 3.22995
402 1 Ar 19.3797 6.45991 6.45991
403 1 Ar 19.3797 6.45991 9.68986
404 1 Ar 19.3797 6.45991 12.9198
405 1 Ar 19.3797 6.45991 16.1498
406 1 Ar 19.3797 6.45991 19.3797
407 1 Ar 19.3797 6.45991 22.6097
408 1 Ar 19.3797 9.68986 0
409 1 Ar 19.3797 9.68986 3.22995
410 1 Ar 19.3797 9.68986 6.45991
411 1 Ar 19.3797 9.68986 9.68986
412 1 Ar 19.3797 9.68986 12.9198
413 1 Ar 19.3797 9.68986 16.1498
414 1 Ar 19.3797 9.68986 19.3797
415 1 Ar 19.3797 9.68986 22.6097
416 1 Ar 19.3797 12.9198 0
417 1 Ar 19.3797 12.9198 3.22995
418 1 Ar 19.3797 12.9198 6.45991
419 1 Ar 19.3797 12.9198 9.68986
420 1 Ar 19.3797 12.9198 12.9198
421 1 Ar 19.3797 12.9198 16.1498
422 1 Ar 19.3797 12.9198 19.3797
423 1 Ar 19.3797 12.9198 22.6097
424 1 Ar 19.3797 16.1498 0
425 1 Ar 19.3797 16.1498 3.22995
426 1 Ar 19.3797 16.1498 6.45991
427 1 Ar 19.3797 16.1498 9.68986
428 1 Ar 19.3797 16.1498 12.9198
429 1 Ar 19.3797 16.1498 16.1498
430 1 Ar 19.3797 16.1498 19.3797
431 1 Ar 19.3797 16.1498 22.6097
432 1 Ar 19.3797 19.3797 0
433 1 Ar 19.3797 19.3797 3.22995
434 1 Ar 19.3797 19.3797 6.45991
435 1 Ar 19.3797 19.3797 9.68986
436 1 Ar 19.3797 19.3797 12.9198
437 1 Ar 19.3797 19.3797 16.1498
438 1 Ar 19.3797 19.3797 19.3797
439 1 Ar 19.3797 19.3797 22.6097
440 1 Ar 19.3797 22.6097 0
441 1 Ar 19.3797 22.6097 3.22995
442 1 Ar 19.3797 22.6097 6.45991
443 1 Ar 19.3797 22.6097 9.68986
444 1 Ar 19.3797 22.6097 12.9198
445 1 Ar 19.3797 22.6097 16.1498
446 1 Ar 19.3797 22.6097 19.3797
447 1 Ar 19.3797 22.6097 22.6097
448 1 Ar 22.6097 0 0
449 1 Ar 22.6097 0 3.22995
450 1 Ar 22.6097 0 6.45991
451 1 Ar 22.6097 0 9.68986
452 1 Ar 22.6097 0 12.9198
453 1 Ar 22.6097 0 16.1498
454 1 Ar 22.6097 0 19.3797
455 1 Ar 22.6097 0 22.6097
456 1 Ar 22.6097 3.22995 0
457 1 Ar 22.6097 3.22995 3.22995
458 1 Ar 22.6097 3.22995 6.45991
459 1 Ar 22.6097 3.22995 9.68986
460 1 Ar 22.6097 3.22995 12.9198
461 1 Ar 22.6097 3.22995 16.1498
462 1 Ar 22.6097 3.22995 19.3797
463 1 Ar 22.6097 3.22995 22.6097
464 1 Ar 22.6097 6.45991 0
465 1 Ar 22.6097 6.45991 3.22995
466 1 Ar 22.6097 6.45991 6.45991
467 1 Ar 22.6097 6.45991 9.68986
468 1 Ar 22.6097 6.45991 12.9198
469 1 Ar 22.6097 6.45991 16.1498
470 1 Ar 22.6097 6.45991 19.3797
471 1 Ar 22.6097 6.45991 22.6097
472 1 Ar 22.6097 9.68986 0
473 1 Ar 22.6097 9.68986 3.22995
474 1 Ar 22.6097 9.68986 6.45991
475 1 Ar 22.6097 9.68986 9.68986
476 1 Ar 22.6097 9.68986 12.9198
477 1 Ar 22.6097 9.68986 16.1498
478 1 Ar 22.6097 9.68986 19.3797
479 1 Ar 22.6097 9.68986 22.6097
480 1 Ar 22.6097 12.9198 0
481 1 Ar 22.6097 12.9198 3.22995
482 1 Ar 22.6097 12.9198 6.45991
483 1 Ar 22.6097 12.9198 9.68986
484 1 Ar 22.6097 12.9198 12.9198
485 1 Ar 22.6097 12.9198 16.1498
486 1 Ar 22.6097 12.9198 19.3797
487 1 Ar 22.6097 12.9198 22.6097
488 1 Ar 22.6097 16.1498 0
489 1 Ar 22.6097 16.1498 3.22995
490 1 Ar 22.6097 16.1498 6.45991
491 1 Ar 22.6097 16.1498 9.68986
492 1 Ar 22.6097 16.1498 12.9198
493 1 Ar 22.6097 16.1498 16.1498
494 1 Ar 22.6097 16.1498 19.3797
495 1 Ar 22.6097 16.1498 22.6097
496 1 Ar 22.6097 19.3797 0
497 1 Ar 22.6097 19.3797 3.22995
498 1 Ar 22.6097 19.3797 6.45991
499 1 Ar 22.6097 19.3797 9.68986
ITEM: TIMESTEP
19999
ITEM: NUMBER OF ATOMS
500
ITEM: BOX BOUNDS pp pp pp
0 29.0696
0 29.0696
0 29.0696
ITEM: ATOMS id type element xu yu zu
0 1 Ar 27.7804 28.2805 27.5161
1 1 Ar 27.4684 28.7515 2.573
2 1 Ar 28.9661 28.1411 6.16217
3 1 Ar 27.16 28.2006 9.90365
4 1 Ar 28.4838 27.9199 13.2193
5 1 Ar 28.3183 28.6082 16.4842
6 1 Ar 28.6144 27.6294 19.828
7 1 Ar 28.2227 28.539 23.9582
8 1 Ar 28.5167 2.8853 27.4057
9 1 Ar 28.1367 3.31754 2.05041
10 1 Ar 29.0675 2.55295 6.27982
11 1 Ar 28.6296 3.16996 9.58892
12 1 Ar 28.344 2.95147 12.8075
13 1 Ar 28.7629 2.78609 16.0386
14 1 Ar 27.463 2.44658 19.1565
15 1 Ar 28.5288 3.11019 22.778
16 1 Ar 28.3935 6.42836 0.271683
17 1 Ar 0.552978 5.90399 3.72312
18 1 Ar 27.082 6.48523 6.02338
19 1 Ar 26.8396 5.96187 9.84276
20 1 Ar 28.979 6.39834 12.8197
21 1 Ar 28.0122 6.24572 16.5382
22 1 Ar 28.7363 6.11886 20.3454
23 1 Ar 0.0652818 6.77974 23.6154
24 1 Ar 28.5397 9.13043 27.8284
25 1 Ar 27.9399 9.12125 2.44257
26 1 Ar 0.0835793 9.3164 5.83529
27 1 Ar 0.11655 8.78886 9.46488
28 1 Ar 27.563 9.39608 12.4398
29 1 Ar 29.0325 9.36113 15.6042
30 1 Ar 29.0678 9.4509 19.4714
31 1 Ar 27.8757 10.122 22.4873
32 1 Ar 28.1771 12.6132 28.4754
33 1 Ar 27.2269 13.4305 2.91807
34 1 Ar 28.839 12.7964 6.0942
35 1 Ar 28.7465 12.7982 9.42394
36 1 Ar 28.3066 13.1664 12.7958
37 1 Ar 28.4096 12.5199 16.3327
38 1 Ar 28.798 12.8928 19.7194
39 1 Ar 28.4448 13.4684 23.0072
40 1 Ar 28.9347 15.9658 27.302
41 1 Ar 27.8379 16.8975 2.13768
42 1 Ar 28.1391 16.0012 6.30838
43 1 Ar 28.0278 15.7256 10.0862
44 1 Ar 28.6751 16.3926 13.4089
45 1 Ar 26.95 15.914 16.401
46 1 Ar 28.6859 15.9942 19.8754
47 1 Ar 27.8023 16.532 24.0169
48 1 Ar 28.8515 19.4321 27.8198
49 1 Ar 0.261811 20.1022 2.70166
50 1 Ar 28.3618 21.0182 6.04973
51 1 Ar 28.6684 18.677 9.07815
52 1 Ar 28.5167 19.877 12.8045
53 1 Ar 27.865 19.0022 16.2177
54 1 Ar 28.0261 19.5096 19.6014
55 1 Ar 0.0715306 19.6726 23.5344
56 1 Ar 27.2855 23.6336 27.6734
57 1 Ar 28.6059 23.8002 3.42155
58 1 Ar 27.4601 25.2176 6.36094
59 1 Ar 28.7015 24.1315 9.29833
60 1 Ar 28.9593 23.459 12.7288
61 1 Ar 28.1976 24.4183 16.1968
62 1 Ar 28.4739 23.2131 19.7191
63 1 Ar 28.6674 24.5085 23.0462
64 1 Ar 3.77194 27.6201 0.0397738
65 1 Ar 1.96261 28.3622 3.53869
66 1 Ar 3.02108 28.8736 6.72126
67 1 Ar 1.81017 28.4033 10.0424
68 1 Ar 2.84286 28.4304 12.9984
69 1 Ar 2.6565 28.1933 16.5046
70 1 Ar 2.91171 28.3412 19.8165
71 1 Ar 2.91526 28.2026 23.1266
72 1 Ar 3.00783 2.00416 27.6796
73 1 Ar 2.81447 3.43304 2.41674
74 1 Ar 3.21141 3.03059 5.75331
75 1 Ar 3.21783 2.3652 9.41312
76 1 Ar 2.79505 2.94221 12.9197
77 1 Ar 3.35199 2.96872 16.7331
78 1 Ar 2.03718 2.58313 19.7797
79 1 Ar 2.8888 2.56147 23.2176
80 1 Ar 2.83352 6.01712 28.9693
81 1 Ar 3.87341 6.5776 3.07499
82 1 Ar 2.81253 6.70709 6.55704
83 1 Ar 2.74123 5.96565 9.81147
84 1 Ar 3.4501 6.31387 12.7285
85 1 Ar 2.96251 6.26469 15.9891
86 1 Ar 2.8829 6.35542 19.5888
87 1 Ar 2.94602 5.94229 24.7338
88 1 Ar 3.13993 9.34662 28.1656
89 1 Ar 3.02976 9.94919 2.49153
90 1 Ar 3.38733 9.95549 5.80005
91 1 Ar 3.18371 9.5707 9.5694
92 1 Ar 2.98776 9.68439 13.2187
93 1 Ar 3.16115 10.2301 16.5023
94 1 Ar 3.4355 9.76625 19.9933
95 1 Ar 2.28933 9.52465 23.3096
96 1 Ar 2.84459 12.8826 28.0943
97 1 Ar 1.67416 13.2109 3.29341
98 1 Ar 3.26507 13.2337 6.26578
99 1 Ar 2.93325 12.8539 9.39056
100 1 Ar 3.17453 13.2137 12.6863
101 1 Ar 2.95799 13.4439 15.9682
102 1 Ar 3.16115 13.0285 19.2268
103 1 Ar 2.73374 13.0017 23.4705
104 1 Ar 3.15408 16.4139 28.4384
105 1 Ar 2.45309 16.4895 2.45256
106 1 Ar 2.66306 16.4977 6.10137
107 1 Ar 2.59808 15.8512 9.89783
108 1 Ar 3.30281 16.702 13.0487
109 1 Ar 1.57924 16.3281 16.2132
110 1 Ar 2.90571 16.2594 18.9919
111 1 Ar 2.81656 16.3896 22.4022
112 1 Ar 3.24172 19.7909 28.9372
113 1 Ar 3.46334 19.4059 3.28261
114 1 Ar 2.58109 19.9183 6.61296
115 1 Ar 3.0767 18.87 9.53951
116 1 Ar 3.01099 20.0887 12.7604
117 1 Ar 2.66593 19.3569 16.258
118 1 Ar 2.82003 19.8572 19.573
119 1 Ar 3.44981 20.0128 22.8758
120 1 Ar 1.99527 23.8695 29.0299
121 1 Ar 2.78208 22.7495 3.28987
122 1 Ar 3.29726 25.0272 6.20243
123 1 Ar 2.67543 22.356 9.04279
124 1 Ar 3.464 24.0064 11.9586
125 1 Ar 2.79305 23.0594 15.9463
126 1 Ar 3.09551 23.3393 20.0447
127 1 Ar 2.86735 23.0916 24.4416
128 1 Ar 6.80149 0.186747 28.2441
129 1 Ar 5.57097 28.788 2.66443
130 1 Ar 6.76161 0.208561 5.90683
131 1 Ar 5.54106 27.5205 9.64749
132 1 Ar 6.18604 0.102944 12.8789
133 1 Ar 6.05107 28.1651 16.1708
134 1 Ar 6.60416 27.9574 19.5763
135 1 Ar 6.27127 27.858 22.9771
136 1 Ar 6.51266 3.25071 26.9878
137 1 Ar 6.08059 2.86503 3.62387
138 1 Ar 6.43117 3.4459 6.75363
139 1 Ar 6.78091 1.92882 9.66389
140 1 Ar 6.27691 3.33088 12.8832
141 1 Ar 6.48358 2.82955 16.1668
142 1 Ar 5.72306 2.02482 20.0078
143 1 Ar 6.32522 2.49901 23.5601
144 1 Ar 6.62476 6.41367 28.5935
145 1 Ar 7.21389 6.18566 2.84696
146 1 Ar 6.22387 6.53678 6.0172
147 1 Ar 6.11407 6.44424 9.79878
148 1 Ar 6.59711 6.53694 13.5411
149 1 Ar 6.14262 6.77648 16.9029
150 1 Ar 6.33227 5.33128 19.957
151 1 Ar 6.15087 6.07657 23.6873
152 1 Ar 6.59484 9.92086 28.7354
153 1 Ar 6.60824 10.1395 3.1456
154 1 Ar 6.50577 9.49724 6.41258
155 1 Ar 6.60703 9.78128 9.39107
156 1 Ar 6.3268 9.68488 12.5523
157 1 Ar 6.21563 9.92661 15.9702
158 1 Ar 6.84593 9.07653 19.1339
159 1 Ar 5.56893 9.38238 22.6031
160 1 Ar 6.27197 13.2305 28.531
161 1 Ar 5.04916 13.4019 2.72381
162 1 Ar 6.42725 12.5654 6.20798
163 1 Ar 6.24304 13.3485 9.51794
164 1 Ar 6.39862 12.8591 12.6331
165 1 Ar 6.35279 13.6931 16.1572
166 1 Ar 6.5783 13.0789 19.5168
167 1 Ar 6.34817 13.2581 23.5663
168 1 Ar 6.3835 16.6858 27.7948
169 1 Ar 6.71904 15.8977 3.60989
170 1 Ar 6.30294 16.0316 6.93056
171 1 Ar 5.89106 16.4783 10.1755
172 1 Ar 6.38954 16.1944 13.5362
173 1 Ar 4.99472 16.6239 16.4575
174 1 Ar 6.13498 16.3448 19.5487
175 1 Ar 5.96153 16.8264 22.7943
176 1 Ar 6.45672 19.9337 27.8057
177 1 Ar 6.55046 18.6007 2.01264
178 1 Ar 5.85993 19.7109 5.47381
179 1 Ar 6.31775 19.7528 9.08508
180 1 Ar 6.44851 19.2066 12.5559
181 1 Ar 5.80609 20.3104 16.0883
182 1 Ar 6.74562 19.6818 20.1705
183 1 Ar 6.7572 19.7394 24.3672
184 1 Ar 5.9075 23.6235 28.585
185 1 Ar 6.31696 22.9108 3.49649
186 1 Ar 7.15436 25.2214 6.73977
187 1 Ar 5.99719 23.4797 9.64598
188 1 Ar 7.13876 22.7971 13.1633
189 1 Ar 6.26322 23.9329 16.2691
190 1 Ar 6.7216 23.6197 19.8756
191 1 Ar 6.5532 23.7534 23.7826
192 1 Ar 9.72451 27.2858 28.4938
193 1 Ar 9.31425 28.2303 2.72467
194 1 Ar 9.81614 28.278 6.33289
195 1 Ar 9.56366 27.5495 9.70923
196 1 Ar 9.52424 28.97 13.0218
197 1 Ar 9.69604 28.7081 16.1825
198 1 Ar 9.8172 28.3513 19.6924
199 1 Ar 9.78249 28.5794 23.4639
200 1 Ar 9.70751 1.88215 28.8673
201 1 Ar 9.41966 3.40509 3.05184
202 1 Ar 9.59966 2.70542 6.57462
203 1 Ar 10.2317 2.50135 9.79105
204 1 Ar 9.43114 3.45542 12.6975
205 1 Ar 9.76579 3.03546 15.7833
206 1 Ar 10.0215 3.04526 19.1918
207 1 Ar 9.80334 3.30949 22.6306
208 1 Ar 10.0053 6.18696 28.1995
209 1 Ar 10.3144 6.67758 3.02602
210 1 Ar 9.23003 6.2716 6.3453
211 1 Ar 9.1258 5.80375 9.35516
212 1 Ar 9.92087 6.71992 12.7056
213 1 Ar 9.45226 6.33557 16.0724
214 1 Ar 9.46358 6.44335 19.5278
215 1 Ar 9.41759 5.68061 24.6771
216 1 Ar 10.0176 9.89 27.3343
217 1 Ar 9.81229 9.86087 2.28806
218 1 Ar 9.49829 9.50668 5.60576
219 1 Ar 9.86234 9.58477 9.01108
220 1 Ar 10.1406 10.1809 12.5094
221 1 Ar 9.52428 9.48144 16.4215
222 1 Ar 9.82519 9.73306 19.717
223 1 Ar 8.64467 9.59122 23.8456
224 1 Ar 9.75692 13.3274 28.5911
225 1 Ar 8.9129 13.3875 3.27932
226 1 Ar 9.70996 12.6402 6.56378
227 1 Ar 9.87307 12.9351 9.88918
228 1 Ar 9.48469 13.4695 13.1413
229 1 Ar 9.70245 12.6946 16.684
230 1 Ar 10.1941 13.5124 20.0211
231 1 Ar 9.74289 13.0067 23.2063
232 1 Ar 9.27533 16.7065 0.23283
233 1 Ar 10.0077 16.8391 3.59842
234 1 Ar 9.7962 16.0438 6.80952
235 1 Ar 9.79169 16.2229 10.0861
236 1 Ar 9.42258 16.8716 13.4401
237 1 Ar 8.7604 16.1769 16.8878
238 1 Ar 9.1544 16.454 20.9643
239 1 Ar 9.39546 16.3212 24.523
240 1 Ar 9.98974 20.2643 28.0651
241 1 Ar 9.39634 20.32 2.78506
242 1 Ar 9.02455 19.4224 6.30357
243 1 Ar 9.53194 19.5648 9.84205
244 1 Ar 9.69605 20.6363 13.1738
245 1 Ar 9.60656 19.132 15.9154
246 1 Ar 10.2963 19.2811 19.1889
247 1 Ar 9.58123 19.5233 22.5754
248 1 Ar 9.67 23.691 28.0576
249 1 Ar 9.67778 24.0202 2.62189
250 1 Ar 9.72835 22.7505 6.14503
251 1 Ar 9.75958 23.9869 10.1301
252 1 Ar 9.6227 25.5386 13.166
253 1 Ar 10.0764 23.157 15.5895
254 1 Ar 9.91258 22.9335 18.8349
255 1 Ar 9.56781 24.1773 22.3123
256 1 Ar 13.3103 28.1183 28.7824
257 1 Ar 12.8007 28.5013 3.21925
258 1 Ar 13.0154 28.8742 6.52094
259 1 Ar 12.9689 28.5927 9.89464
260 1 Ar 12.6591 28.0056 13.2372
261 1 Ar 13.2615 0.0682257 16.3123
262 1 Ar 12.9719 27.5879 19.5294
263 1 Ar 12.6859 28.2048 25.3056
264 1 Ar 12.2768 3.10418 26.9274
265 1 Ar 12.6769 2.86666 1.88992
266 1 Ar 12.8701 3.07881 5.95883
267 1 Ar 13.4338 2.98012 9.33212
268 1 Ar 12.591 2.81493 12.5366
269 1 Ar 13.1262 3.79148 16.483
270 1 Ar 13.1757 1.97035 19.5662
271 1 Ar 12.9615 2.37793 23.29
272 1 Ar 13.4322 5.78545 0.125363
273 1 Ar 13.6691 5.6371 3.51778
274 1 Ar 12.6037 6.38845 6.44864
275 1 Ar 12.428 6.64927 9.94828
276 1 Ar 13.3017 6.46281 12.9923
277 1 Ar 12.5602 6.72352 16.3841
278 1 Ar 13.1141 5.94735 19.9825
279 1 Ar 12.6183 5.66885 23.9714
280 1 Ar 13.2694 9.57685 0.515653
281 1 Ar 13.5178 9.00521 3.80656
282 1 Ar 12.7617 9.82159 6.87865
283 1 Ar 12.8909 9.84318 9.91507
284 1 Ar 13.2271 9.76635 13.1218
285 1 Ar 12.9929 9.81728 16.6905
286 1 Ar 13.0734 9.46127 20.0411
287 1 Ar 12.5472 9.1209 23.9668
288 1 Ar 13.4274 12.6749 28.4905
289 1 Ar 12.4008 12.3403 2.68766
290 1 Ar 12.9417 13.1204 6.06504
291 1 Ar 12.9737 13.5113 9.31466
292 1 Ar 12.7537 12.8791 12.6191
293 1 Ar 12.9609 13.0716 16.2935
294 1 Ar 13.3917 13.0807 19.7548
295 1 Ar 13.0672 12.9718 24.2109
296 1 Ar 12.6395 15.829 27.5157
297 1 Ar 12.9736 15.9743 2.31875
298 1 Ar 13.0147 16.5178 6.27793
299 1 Ar 12.9961 16.6354 9.58967
300 1 Ar 12.6234 16.4186 12.7725
301 1 Ar 12.7677 16.4556 15.8983
302 1 Ar 12.5786 16.7553 19.6593
303 1 Ar 12.4861 16.4752 23.1617
304 1 Ar 12.9337 18.9116 28.5883
305 1 Ar 13.0465 19.6701 2.70958
306 1 Ar 12.6331 19.7116 6.06312
307 1 Ar 12.7625 20.4666 9.38042
308 1 Ar 13.5786 19.8899 12.6049
309 1 Ar 13.1052 20.2222 16.1173
310 1 Ar 13.5333 20.4631 19.8514
311 1 Ar 12.5706 19.8943 24.083
312 1 Ar 13.2248 22.6882 28.5207
313 1 Ar 12.9077 23.8305 3.14681
314 1 Ar 13.2245 22.8481 6.41898
315 1 Ar 13.1823 24.6206 9.29702
316 1 Ar 12.2644 23.1864 12.6455
317 1 Ar 13.45 23.8634 15.8929
318 1 Ar 13.0579 24.1749 19.2584
319 1 Ar 12.9948 22.6522 22.2493
320 1 Ar 16.7027 28.7127 28.9238
321 1 Ar 16.1963 28.6734 3.20157
322 1 Ar 16.3549 27.7024 6.63056
323 1 Ar 16.0192 28.174 10.2891
324 1 Ar 16.1097 0.17727 13.335
325 1 Ar 17.2339 27.6467 16.2029
326 1 Ar 16.3065 28.9626 19.4876
327 1 Ar 16.4418 28.7858 24.431
328 1 Ar 16.4012 3.24812 28.8331
329 1 Ar 16.0547 3.24238 3.14308
330 1 Ar 16.1499 2.24605 6.3484
331 1 Ar 16.9313 2.34358 9.64554
332 1 Ar 16.4213 3.8451 12.8535
333 1 Ar 15.9989 2.389 15.9754
334 1 Ar 16.1868 3.1547 19.4044
335 1 Ar 16.6225 3.02702 23.4326
336 1 Ar 16.5914 6.83845 28.2015
337 1 Ar 16.8246 6.78955 3.46583
338 1 Ar 15.8924 6.05375 6.46785
339 1 Ar 16.5358 5.92991 9.62333
340 1 Ar 16.581 7.11868 12.8221
341 1 Ar 15.5323 6.2411 16.0261
342 1 Ar 16.9326 6.32111 19.3775
343 1 Ar 16.1955 6.00027 24.9182
344 1 Ar 16.4043 9.9726 27.9237
345 1 Ar 16.9194 9.87899 2.4118
346 1 Ar 15.9643 9.62169 5.92182
347 1 Ar 15.9125 9.15788 9.88734
348 1 Ar 16.4996 10.2989 12.8845
349 1 Ar 17.2932 9.22441 16.1956
350 1 Ar 16.3085 9.51347 19.6376
351 1 Ar 16.6276 9.7683 23.5909
352 1 Ar 17.0134 12.741 0.195596
353 1 Ar 15.4895 12.8476 3.24316
354 1 Ar 16.1097 13.258 6.46825
355 1 Ar 16.3342 12.6885 9.65613
356 1 Ar 16.4751 13.4794 13.181
357 1 Ar 16.3346 12.6728 16.7075
358 1 Ar 16.7879 12.7988 20.2943
359 1 Ar 16.553 12.7854 25.1403
360 1 Ar 16.1805 15.7856 28.2391
361 1 Ar 16.2711 16.3739 2.64634
362 1 Ar 16.6875 16.3825 6.48345
363 1 Ar 16.2358 15.9561 9.80407
364 1 Ar 16.2612 16.7216 12.9343
365 1 Ar 16.2658 15.9117 16.082
366 1 Ar 16.125 16.5131 19.3998
367 1 Ar 15.6926 16.1195 23.3829
368 1 Ar 16.2726 19.121 28.0838
369 1 Ar 16.6303 19.7846 2.59866
370 1 Ar 15.8421 19.5611 6.23474
371 1 Ar 16.1708 19.288 9.7797
372 1 Ar 17.1899 19.9861 13.0031
373 1 Ar 16.7808 19.2633 16.0697
374 1 Ar 16.8752 19.6499 19.6782
375 1 Ar 16.2833 19.6123 23.6172
376 1 Ar 16.9236 23.6974 28.039
377 1 Ar 16.2496 23.4689 2.82775
378 1 Ar 16.7469 23.527 6.19493
379 1 Ar 16.1408 22.5785 9.22097
380 1 Ar 15.9337 23.5395 12.4
381 1 Ar 17.0324 22.7245 16.3537
382 1 Ar 16.6184 23.1626 19.6689
383 1 Ar 16.3318 23.1173 23.8546
384 1 Ar 20.0072 28.2965 27.3409
385 1 Ar 20.1237 27.8875 3.10253
386 1 Ar 19.6075 27.3496 6.48981
387 1 Ar 19.4989 27.7662 9.80321
388 1 Ar 19.2776 28.92 12.6917
389 1 Ar 20.1292 28.8041 16.7367
390 1 Ar 19.5373 28.3697 20.1866
391 1 Ar 19.581 27.1253 23.5129
392 1 Ar 19.8787 2.37063 28.7397
393 1 Ar 19.6077 3.21973 2.84502
394 1 Ar 19.9526 2.49046 6.82619
395 1 Ar 19.8872 2.92894 10.1565
396 1 Ar 20.0248 3.26725 13.3987
397 1 Ar 19.1883 2.9497 16.8953
398 1 Ar 19.4424 3.10661 20.0652
399 1 Ar 19.6656 1.54332 24.6514
400 1 Ar 19.5838 5.8968 27.6425
401 1 Ar 19.7878 6.50798 1.88966
402 1 Ar 19.2831 5.75217 5.83327
403 1 Ar 19.8823 6.26302 9.24294
404 1 Ar 19.616 6.4489 12.8707
405 1 Ar 19.1586 6.29829 16.428
406 1 Ar 21.0399 6.00969 19.545
407 1 Ar 19.3798 5.68172 22.3872
408 1 Ar 19.7735 9.25369 28.3354
409 1 Ar 20.2985 9.88188 2.63318
410 1 Ar 19.4576 9.62367 5.89689
411 1 Ar 19.0609 9.58887 9.65751
412 1 Ar 19.7002 9.39114 13.3861
413 1 Ar 20.4256 9.95043 16.4768
414 1 Ar 19.6384 9.22257 20.0898
415 1 Ar 19.9749 8.65105 24.2041
416 1 Ar 20.267 13.1368 28.3345
417 1 Ar 19.7397 13.1392 2.57706
418 1 Ar 19.2891 12.7635 6.19052
419 1 Ar 20.0509 12.8597 9.6312
420 1 Ar 19.6625 12.7289 13.0782
421 1 Ar 19.4671 13.5255 16.2787
422 1 Ar 20.2025 12.8182 19.5136
423 1 Ar 19.4789 12.2103 23.477
424 1 Ar 19.4888 16.4104 28.4199
425 1 Ar 19.4921 16.2805 3.3591
426 1 Ar 20.3092 15.8055 6.57852
427 1 Ar 19.4729 16.1971 9.87552
428 1 Ar 19.8724 15.9709 13.1928
429 1 Ar 19.3854 16.8085 16.2988
430 1 Ar 19.2964 16.2812 19.6471
431 1 Ar 19.5385 16.192 23.2178
432 1 Ar 19.6509 19.7864 28.7003
433 1 Ar 19.8817 19.5536 3.21123
434 1 Ar 19.1348 19.1892 6.6081
435 1 Ar 19.7866 19.8616 9.8498
436 1 Ar 20.4876 19.1528 13.0559
437 1 Ar 20.3767 20.1015 15.965
438 1 Ar 20.272 19.392 19.4444
439 1 Ar 19.5419 20.0112 22.8941
440 1 Ar 20.3908 23.189 28.2182
441 1 Ar 19.4029 23.0066 3.26752
442 1 Ar 20.1959 22.4169 6.66032
443 1 Ar 20.3639 24.1006 9.84888
444 1 Ar 20.1487 22.7149 12.9999
445 1 Ar 19.8969 23.8977 16.5679