ITEM: TIMESTEP
-1
ITEM: NUMBER OF ATOMS
500
ITEM: BOX BOUNDS pp pp pp
0 27.9504
0 27.9504
0 27.9504
ITEM: ATOMS id type element xu yu zu
0 1 Ar 0 0 0
1 1 Ar 0 0 3.1056
2 1 Ar 0 0 6.2112
3 1 Ar 0 0 9.3168
4 1 Ar 0 0 12.4224
5 1 Ar 0 0 15.528
6 1 Ar 0 0 18.6336
7 1 Ar 0 0 21.7392
8 1 Ar 0 3.1056 0
9 1 Ar 0 3.1056 3.1056
10 1 Ar 0 3.1056 6.2112
11 1 Ar 0 3.1056 9.3168
12 1 Ar 0 3.1056 12.4224
13 1 Ar 0 3.1056 15.528
14 1 Ar 0 3.1056 18.6336
15 1 Ar 0 3.1056 21.7392
16 1 Ar 0 6.2112 0
17 1 Ar 0 6.2112 3.1056
18 1 Ar 0 6.2112 6.2112
19 1 Ar 0 6.2112 9.3168
20 1 Ar 0 6.2112 12.4224
21 1 Ar 0 6.2112 15.528
22 1 Ar 0 6.2112 18.6336
23 1 Ar 0 6.2112 21.7392
24 1 Ar 0 9.3168 0
25 1 Ar 0 9.3168 3.1056
26 1 Ar 0 9.3168 6.2112
27 1 Ar 0 9.3168 9.3168
28 1 Ar 0 9.3168 12.4224
29 1 Ar 0 9.3168 15.528
30 1 Ar 0 9.3168 18.6336
31 1 Ar 0 9.3168 21.7392
32 1 Ar 0 12.4224 0
33 1 Ar 0 12.4224 3.1056
34 1 Ar 0 12.4224 6.2112
35 1 Ar 0 12.4224 9.3168
36 1 Ar 0 12.4224 12.4224
37 1 Ar 0 12.4224 15.528
38 1 Ar 0 12.4224 18.6336
39 1 Ar 0 12.4224 21.7392
40 1 Ar 0 15.528 0
41 1 Ar 0 15.528 3.1056
42 1 Ar 0 15.528 6.2112
43 1 Ar 0 15.528 9.3168
44 1 Ar 0 15.528 12.4224
45 1 Ar 0 15.528 15.528
46 1 Ar 0 15.528 18.6336
47 1 Ar 0 15.528 21.7392
48 1 Ar 0 18.6336 0
49 1 Ar 0 18.6336 3.1056
50 1 Ar 0 18.6336 6.2112
51 1 Ar 0 18.6336 9.3168
52 1 Ar 0 18.6336 12.4224
53 1 Ar 0 18.6336 15.528
54 1 Ar 0 18.6336 18.6336
55 1 Ar 0 18.6336 21.7392
56 1 Ar 0 21.7392 0
57 1 Ar 0 21.7392 3.1056
58 1 Ar 0 21.7392 6.2112
59 1 Ar 0 21.7392 9.3168
60 1 Ar 0 21.7392 12.4224
61 1 Ar 0 21.7392 15.528
62 1 Ar 0 21.7392 18.6336
63 1 Ar 0 21.7392 21.7392
64 1 Ar 3.1056 0 0
65 1 Ar 3.1056 0 3.1056
66 1 Ar 3.1056 0 6.2112
67 1 Ar 3.1056 0 9.3168
68 1 Ar 3.1056 0 12.4224
69 1 Ar 3.1056 0 15.528
70 1 Ar 3.1056 0 18.6336
71 1 Ar 3.1056 0 21.7392
72 1 Ar 3.1056 3.1056 0
73 1 Ar 3.1056 3.1056 3.1056
74 1 Ar 3.1056 3.1056 6.2112
75 1 Ar 3.1056 3.1056 9.3168
76 1 Ar 3.1056 3.1056 12.4224
77 1 Ar 3.1056 3.1056 15.528
78 1 Ar 3.1056 3.1056 18.6336
79 1 Ar 3.1056 3.1056 21.7392
80 1 Ar 3.1056 6.2112 0
81 1 Ar 3.1056 6.2112 3.1056
82 1 Ar 3.1056 6.2112 6.2112
83 1 Ar 3.1056 6.2112 9.3168
84 1 Ar 3.1056 6.2112 12.4224
85 1 Ar 3.1056 6.2112 15.528
86 1 Ar 3.1056 6.2112 18.6336
87 1 Ar 3.1056 6.2112 21.7392
88 1 Ar 3.1056 9.3168 0
89 1 Ar 3.1056 9.3168 3.1056
90 1 Ar 3.1056 9.3168 6.2112
91 1 Ar 3.1056 9.3168 9.3168
92 1 Ar 3.1056 9.3168 12.4224
93 1 Ar 3.1056 9.3168 15.528
94 1 Ar 3.1056 9.3168 18.6336
95 1 Ar 3.1056 9.3168 21.7392
96 1 Ar 3.1056 12.4224 0
97 1 Ar 3.1056 12.4224 3.1056
98 1 Ar 3.1056 12.4224 6.2112
99 1 Ar 3.1056 12.4224 9.3168
100 1 Ar 3.1056 12.4224 12.4224
101 1 Ar 3.1056 12.4224 15.528
102 1 Ar 3.1056 12.4224 18.6336
103 1 Ar 3.1056 12.4224 21.7392
104 1 Ar 3.1056 15.528 0
105 1 Ar 3.1056 15.528 3.1056
106 1 Ar 3.1056 15.528 6.2112
107 1 Ar 3.1056 15.528 9.3168
108 1 Ar 3.1056 15.528 12.4224
109 1 Ar 3.1056 15.528 15.528
110 1 Ar 3.1056 15.528 18.6336
111 1 Ar 3.1056 15.528 21.7392
112 1 Ar 3.1056 18.6336 0
113 1 Ar 3.1056 18.6336 3.1056
114 1 Ar 3.1056 18.6336 6.2112
115 1 Ar 3.1056 18.6336 9.3168
116 1 Ar 3.1056 18.6336 12.4224
117 1 Ar 3.1056 18.6336 15.528
118 1 Ar 3.1056 18.6336 18.6336
119 1 Ar 3.1056 18.6336 21.7392
120 1 Ar 3.1056 21.7392 0
121 1 Ar 3.1056 21.7392 3.1056
122 1 Ar 3.1056 21.7392 6.2112
123 1 Ar 3.1056 21.7392 9.3168
124 1 Ar 3.1056 21.7392 12.4224
125 1 Ar 3.1056 21.7392 15.528
126 1 Ar 3.1056 21.7392 18.6336
127 1 Ar 3.1056 21.7392 21.7392
128 1 Ar 6.2112 0 0
129 1 Ar 6.2112 0 3.1056
130 1 Ar 6.2112 0 6.2112
131 1 Ar 6.2112 0 9.3168
132 1 Ar 6.2112 0 12.4224
133 1 Ar 6.2112 0 15.528
134 1 Ar 6.2112 0 18.6336
135 1 Ar 6.2112 0 21.7392
136 1 Ar 6.2112 3.1056 0
137 1 Ar 6.2112 3.1056 3.1056
138 1 Ar 6.2112 3.1056 6.2112
139 1 Ar 6.2112 3.1056 9.3168
140 1 Ar 6.2112 3.1056 12.4224
141 1 Ar 6.2112 3.1056 15.528
142 1 Ar 6.2112 3.1056 18.6336
143 1 Ar 6.2112 3.1056 21.7392
144 1 Ar 6.2112 6.2112 0
145 1 Ar 6.2112 6.2112 3.1056
146 1 Ar 6.2112 6.2112 6.2112
147 1 Ar 6.2112 6.2112 9.3168
148 1 Ar 6.2112 6.2112 12.4224
149 1 Ar 6.2112 6.2112 15.528
150 1 Ar 6.2112 6.2112 18.6336
151 1 Ar 6.2112 6.2112 21.7392
152 1 Ar 6.2112 9.3168 0
153 1 Ar 6.2112 9.3168 3.1056
154 1 Ar 6.2112 9.3168 6.2112
155 1 Ar 6.2112 9.3168 9.3168
156 1 Ar 6.2112 9.3168 12.4224
157 1 Ar 6.2112 9.3168 15.528
158 1 Ar 6.2112 9.3168 18.6336
159 1 Ar 6.2112 9.3168 21.7392
160 1 Ar 6.2112 12.4224 0
161 1 Ar 6.2112 12.4224 3.1056
162 1 Ar 6.2112 12.4224 6.2112
163 1 Ar 6.2112 12.4224 9.3168
164 1 Ar 6.2112 12.4224 12.4224
165 1 Ar 6.2112 12.4224 15.528
166 1 Ar 6.2112 12.4224 18.6336
167 1 Ar 6.2112 12.4224 21.7392
168 1 Ar 6.2112 15.528 0
169 1 Ar 6.2112 15.528 3.1056
170 1 Ar 6.2112 15.528 6.2112
171 1 Ar 6.2112 15.528 9.3168
172 1 Ar 6.2112 15.528 12.4224
173 1 Ar 6.2112 15.528 15.528
174 1 Ar 6.2112 15.528 18.6336
175 1 Ar 6.2112 15.528 21.7392
176 1 Ar 6.2112 18.6336 0
177 1 Ar 6.2112 18.6336 3.1056
178 1 Ar 6.2112 18.6336 6.2112
179 1 Ar 6.2112 18.6336 9.3168
180 1 Ar 6.2112 18.6336 12.4224
181 1 Ar 6.2112 18.6336 15.528
182 1 Ar 6.2112 18.6336 18.6336
183 1 Ar 6.2112 18.6336 21.7392
184 1 Ar 6.2112 21.7392 0
185 1 Ar 6.2112 21.7392 3.1056
186 1 Ar 6.2112 21.7392 6.2112
187 1 Ar 6.2112 21.7392 9.3168
188 1 Ar 6.2112 21.7392 12.4224
189 1 Ar 6.2112 21.7392 15.528
190 1 Ar 6.2112 21.7392 18.6336
191 1 Ar 6.2112 21.7392 21.7392
192 1 Ar 9.3168 0 0
193 1 Ar 9.3168 0 3.1056
194 1 Ar 9.3168 0 6.2112
195 1 Ar 9.3168 0 9.3168
196 1 Ar 9.3168 0 12.4224
197 1 Ar 9.3168 0 15.528
198 1 Ar 9.3168 0 18.6336
199 1 Ar 9.3168 0 21.7392
200 1 Ar 9.3168 3.1056 0
201 1 Ar 9.3168 3.1056 3.1056
202 1 Ar 9.3168 3.1056 6.2112
203 1 Ar 9.3168 3.1056 9.3168
204 1 Ar 9.3168 3.1056 12.4224
205 1 Ar 9.3168 3.1056 15.528
206 1 Ar 9.3168 3.1056 18.6336
207 1 Ar 9.3168 3.1056 21.7392
208 1 Ar 9.3168 6.2112 0
209 1 Ar 9.3168 6.2112 3.1056
210 1 Ar 9.3168 6.2112 6.2112
211 1 Ar 9.3168 6.2112 9.3168
212 1 Ar 9.3168 6.2112 12.4224
213 1 Ar 9.3168 6.2112 15.528
214 1 Ar 9.3168 6.2112 18.6336
215 1 Ar 9.3168 6.2112 21.7392
216 1 Ar 9.3168 9.3168 0
217 1 Ar 9.3168 9.3168 3.1056
218 1 Ar 9.3168 9.3168 6.2112
219 1 Ar 9.3168 9.3168 9.3168
220 1 Ar 9.3168 9.3168 12.4224
221 1 Ar 9.3168 9.3168 15.528
222 1 Ar 9.3168 9.3168 18.6336
223 1 Ar 9.3168 9.3168 21.7392
224 1 Ar 9.3168 12.4224 0
225 1 Ar 9.3168 12.4224 3.1056
226 1 Ar 9.3168 12.4224 6.2112
227 1 Ar 9.3168 12.4224 9.3168
228 1 Ar 9.3168 12.4224 12.4224
229 1 Ar 9.3168 12.4224 15.528
230 1 Ar 9.3168 12.4224 18.6336
231 1 Ar 9.3168 12.4224 21.7392
232 1 Ar 9.3168 15.528 0
233 1 Ar 9.3168 15.528 3.1056
234 1 Ar 9.3168 15.528 6.2112
235 1 Ar 9.3168 15.528 9.3168
236 1 Ar 9.3168 15.528 12.4224
237 1 Ar 9.3168 15.528 15.528
238 1 Ar 9.3168 15.528 18.6336
239 1 Ar 9.3168 15.528 21.7392
240 1 Ar 9.3168 18.6336 0
241 1 Ar 9.3168 18.6336 3.1056
242 1 Ar 9.3168 18.6336 6.2112
243 1 Ar 9.3168 18.6336 9.3168
244 1 Ar 9.3168 18.6336 12.4224
245 1 Ar 9.3168 18.6336 15.528
246 1 Ar 9.3168 18.6336 18.6336
247 1 Ar 9.3168 18.6336 21.7392
248 1 Ar 9.3168 21.7392 0
249 1 Ar 9.3168 21.7392 3.1056
250 1 Ar 9.3168 21.7392 6.2112
251 1 Ar 9.3168 21.7392 9.3168
252 1 Ar 9.3168 21.7392 12.4224
253 1 Ar 9.3168 21.7392 15.528
254 1 Ar 9.3168 21.7392 18.6336
255 1 Ar 9.3168 21.7392 21.7392
256 1 Ar 12.4224 0 0
257 1 Ar 12.4224 0 3.1056
258 1 Ar 12.4224 0 6.2112
259 1 Ar 12.4224 0 9.3168
260 1 Ar 12.4224 0 12.4224
261 1 Ar 12.4224 0 15.528
262 1 Ar 12.4224 0 18.6336
263 1 Ar 12.4224 0 21.7392
264 1 Ar 12.4224 3.1056 0
265 1 Ar 12.4224 3.1056 3.1056
266 1 Ar 12.4224 3.1056 6.2112
267 1 Ar 12.4224 3.1056 9.3168
268 1 Ar 12.4224 3.1056 12.4224
269 1 Ar 12.4224 3.1056 15.528
270 1 Ar 12.4224 3.1056 18.6336
271 1 Ar 12.4224 3.1056 21.7392
272 1 Ar 12.4224 6.2112 0
273 1 Ar 12.4224 6.2112 3.1056
274 1 Ar 12.4224 6.2112 6.2112
275 1 Ar 12.4224 6.2112 9.3168
276 1 Ar 12.4224 6.2112 12.4224
277 1 Ar 12.4224 6.2112 15.528
278 1 Ar 12.4224 6.2112 18.6336
279 1 Ar 12.4224 6.2112 21.7392
280 1 Ar 12.4224 9.3168 0
281 1 Ar 12.4224 9.3168 3.1056
282 1 Ar 12.4224 9.3168 6.2112
283 1 Ar 12.4224 9.3168 9.3168
284 1 Ar 12.4224 9.3168 12.4224
285 1 Ar 12.4224 9.3168 15.528
286 1 Ar 12.4224 9.3168 18.6336
287 1 Ar 12.4224 9.3168 21.7392
288 1 Ar 12.4224 12.4224 0
289 1 Ar 12.4224 12.4224 3.1056
290 1 Ar 12.4224 12.4224 6.2112
291 1 Ar 12.4224 12.4224 9.3168
292 1 Ar 12.4224 12.4224 12.4224
293 1 Ar 12.4224 12.4224 15.528
294 1 Ar 12.4224 12.4224 18.6336
295 1 Ar 12.4224 12.4224 21.7392
296 1 Ar 12.4224 15.528 0
297 1 Ar 12.4224 15.528 3.1056
298 1 Ar 12.4224 15.528 6.2112
299 1 Ar 12.4224 15.528 9.3168
300 1 Ar 12.4224 15.528 12.4224
301 1 Ar 12.4224 15.528 15.528
302 1 Ar 12.4224 15.528 18.6336
303 1 Ar 12.4224 15.528 21.7392
304 1 Ar 12.4224 18.6336 0
305 1 Ar 12.4224 18.6336 3.1056
306 1 Ar 12.4224 18.6336 6.2112
307 1 Ar 12.4224 18.6336 9.3168
308 1 Ar 12.4224 18.6336 12.4224
309 1 Ar 12.4224 18.6336 15.528
310 1 Ar 12.4224 18.6336 18.6336
311 1 Ar 12.4224 18.6336 21.7392
312 1 Ar 12.4224 21.7392 0
313 1 Ar 12.4224 21.7392 3.1056
314 1 Ar 12.4224 21.7392 6.2112
315 1 Ar 12.4224 21.7392 9.3168
316 1 Ar 12.4224 21.7392 12.4224
317 1 Ar 12.4224 21.7392 15.528
318 1 Ar 12.4224 21.7392 18.6336
319 1 Ar 12.4224 21.7392 21.7392
320 1 Ar 15.528 0 0
321 1 Ar 15.528 0 3.1056
322 1 Ar 15.528 0 6.2112
323 1 Ar 15.528 0 9.3168
324 1 Ar 15.528 0 12.4224
325 1 Ar 15.528 0 15.528
326 1 Ar 15.528 0 18.6336
327 1 Ar 15.528 0 21.7392
328 1 Ar 15.528 3.1056 0
329 1 Ar 15.528 3.1056 3.1056
330 1 Ar 15.528 3.1056 6.2112
331 1 Ar 15.528 3.1056 9.3168
332 1 Ar 15.528 3.1056 12.4224
333 1 Ar 15.528 3.1056 15.528
334 1 Ar 15.528 3.1056 18.6336
335 1 Ar 15.528 3.1056 21.7392
336 1 Ar 15.528 6.2112 0
337 1 Ar 15.528 6.2112 3.1056
338 1 Ar 15.528 6.2112 6.2112
339 1 Ar 15.528 6.2112 9.3168
340 1 Ar 15.528 6.2112 12.4224
341 1 Ar 15.528 6.2112 15.528
342 1 Ar 15.528 6.2112 18.6336
343 1 Ar 15.528 6.2112 21.7392
344 1 Ar 15.528 9.3168 0
345 1 Ar 15.528 9.3168 3.1056
346 1 Ar 15.528 9.3168 6.2112
347 1 Ar 15.528 9.3168 9.3168
348 1 Ar 15.528 9.3168 12.4224
349 1 Ar 15.528 9.3168 15.528
350 1 Ar 15.528 9.3168 18.6336
351 1 Ar 15.528 9.3168 21.7392
352 1 Ar 15.528 12.4224 0
353 1 Ar 15.528 12.4224 3.1056
354 1 Ar 15.528 12.4224 6.2112
355 1 Ar 15.528 12.4224 9.3168
356 1 Ar 15.528 12.4224 12.4224
357 1 Ar 15.528 12.4224 15.528
358 1 Ar 15.528 12.4224 18.6336
359 1 Ar 15.528 12.4224 21.7392
360 1 Ar 15.528 15.528 0
361 1 Ar 15.528 15.528 3.1056
362 1 Ar 15.528 15.528 6.2112
363 1 Ar 15.528 15.528 9.3168
364 1 Ar 15.528 15.528 12.4224
365 1 Ar 15.528 15.528 15.528
366 1 Ar 15.528 15.528 18.6336
367 1 Ar 15.528 15.528 21.7392
368 1 Ar 15.528 18.6336 0
369 1 Ar 15.528 18.6336 3.1056
370 1 Ar 15.528 18.6336 6.2112
371 1 Ar 15.528 18.6336 9.3168
372 1 Ar 15.528 18.6336 12.4224
373 1 Ar 15.528 18.6336 15.528
374 1 Ar 15.528 18.6336 18.6336
375 1 Ar 15.528 18.6336 21.7392
376 1 Ar 15.528 21.7392 0
377 1 Ar 15.528 21.7392 3.1056
378 1 Ar 15.528 21.7392 6.2112
379 1 Ar 15.528 21.7392 9.3168
380 1 Ar 15.528 21.7392 12.4224
381 1 Ar 15.528 21.7392 15.528
382 1 Ar 15.528 21.7392 18.6336
383 1 Ar 15.528 21.7392 21.7392
384 1 Ar 18.6336 0 0
385 1 Ar 18.6336 0 3.1056
386 1 Ar 18.6336 0 6.2112
387 1 Ar 18.6336 0 9.3168
388 1 Ar 18.6336 0 12.4224
389 1 Ar 18.6336 0 15.528
390 1 Ar 18.6336 0 18.6336
391 1 Ar 18.6336 0 21.7392
392 1 Ar 18.6336 3.1056 0
393 1 Ar 18.6336 3.1056 3.1056
394 1 Ar 18.6336 3.1056 6.2112
395 1 Ar 18.6336 3.1056 9.3168
396 1 Ar 18.6336 3.1056 12.4224
397 1 Ar 18.6336 3.1056 15.528
398 1 Ar 18.6336 3.1056 18.6336
399 1 Ar 18.6336 3.1056 21.7392
400 1 Ar 18.6336 6.2112 0
401 1 Ar 18.6336 6.2112 3.1056
402 1 Ar 18.6336 6.2112 6.2112
403 1 Ar 18.6336 6.2112 9.3168
404 1 Ar 18.6336 6.2112 12.4224
405 1 Ar 18.6336 6.2112 15.528
406 1 Ar 18.6336 6.2112 18.6336
407 1 Ar 18.6336 6.2112 21.7392
408 1 Ar 18.6336 9.3168 0
409 1 Ar 18.6336 9.3168 3.1056
410 1 Ar 18.6336 9.3168 6.2112
411 1 Ar 18.6336 9.3168 9.3168
412 1 Ar 18.6336 9.3168 12.4224
413 1 Ar 18.6336 9.3168 15.528
414 1 Ar 18.6336 9.3168 18.6336
415 1 Ar 18.6336 9.3168 21.7392
416 1 Ar 18.6336 12.4224 0
417 1 Ar 18.6336 12.4224 3.1056
418 1 Ar 18.6336 12.4224 6.2112
419 1 Ar 18.6336 12.4224 9.3168
420 1 Ar 18.6336 12.4224 12.4224
421 1 Ar 18.6336 12.4224 15.528
422 1 Ar 18.6336 12.4224 18.6336
423 1 Ar 18.6336 12.4224 21.7392
424 1 Ar 18.6336 15.528 0
425 1 Ar 18.6336 15.528 3.1056
426 1 Ar 18.6336 15.528 6.2112
427 1 Ar 18.6336 15.528 9.3168
428 1 Ar 18.6336 15.528 12.4224
429 1 Ar 18.6336 15.528 15.528
430 1 Ar 18.6336 15.528 18.6336
431 1 Ar 18.6336 15.528 21.7392
432 1 Ar 18.6336 18.6336 0
433 1 Ar 18.6336 18.6336 3.1056
434 1 Ar 18.6336 18.6336 6.2112
435 1 Ar 18.6336 18.6336 9.3168
436 1 Ar 18.6336 18.6336 12.4224
437 1 Ar 18.6336 18.6336 15.528
438 1 Ar 18.6336 18.6336 18.6336
439 1 Ar 18.6336 18.6336 21.7392
440 1 Ar 18.6336 21.7392 0
441 1 Ar 18.6336 21.7392 3.1056
442 1 Ar 18.6336 21.7392 6.2112
443 1 Ar 18.6336 21.7392 9.3168
444 1 Ar 18.6336 21.7392 12.4224
445 1 Ar 18.6336 21.7392 15.528
446 1 Ar 18.6336 21.7392 18.6336
447 1 Ar 18.6336 21.7392 21.7392
448 1 Ar 21.7392 0 0
449 1 Ar 21.7392 0 3.1056
450 1 Ar 21.7392 0 6.2112
451 1 Ar 21.7392 0 9.3168
452 1 Ar 21.7392 0 12.4224
453 1 Ar 21.7392 0 15.528
454 1 Ar 21.7392 0 18.6336
455 1 Ar 21.7392 0 21.7392
456 1 Ar 21.7392 3.1056 0
457 1 Ar 21.7392 3.1056 3.1056
458 1 Ar 21.7392 3.1056 6.2112
459 1 Ar 21.7392 3.1056 9.3168
460 1 Ar 21.7392 3.1056 12.4224
461 1 Ar 21.7392 3.1056 15.528
462 1 Ar 21.7392 3.1056 18.6336
463 1 Ar 21.7392 3.1056 21.7392
464 1 Ar 21.7392 6.2112 0
465 1 Ar 21.7392 6.2112 3.1056
466 1 Ar 21.7392 6.2112 6.2112
467 1 Ar 21.7392 6.2112 9.3168
468 1 Ar 21.7392 6.2112 12.4224
469 1 Ar 21.7392 6.2112 15.528
470 1 Ar 21.7392 6.2112 18.6336
471 1 Ar 21.7392 6.2112 21.7392
472 1 Ar 21.7392 9.3168 0
473 1 Ar 21.7392 9.3168 3.1056
474 1 Ar 21.7392 9.3168 6.2112
475 1 Ar 21.7392 9.3168 9.3168
476 1 Ar 21.7392 9.3168 12.4224
477 1 Ar 21.7392 9.3168 15.528
478 1 Ar 21.7392 9.3168 18.6336
479 1 Ar 21.7392 9.3168 21.7392
480 1 Ar 21.7392 12.4224 0
481 1 Ar 21.7392 12.4224 3.1056
482 1 Ar 21.7392 12.4224 6.2112
483 1 Ar 21.7392 12.4224 9.3168
484 1 Ar 21.7392 12.4224 12.4224
485 1 Ar 21.7392 12.4224 15.528
486 1 Ar 21.7392 12.4224 18.6336
487 1 Ar 21.7392 12.4224 21.7392
488 1 Ar 21.7392 15.528 0
489 1 Ar 21.7392 15.528 3.1056
490 1 Ar 21.7392 15.528 6.2112
491 1 Ar 21.7392 15.528 9.3168
492 1 Ar 21.7392 15.528 12.4224
493 1 Ar 21.7392 15.528 15.528
494 1 Ar 21.7392 15.528 18.6336
495 1 Ar 21.7392 15.528 21.7392
496 1 Ar 21.7392 18.6336 0
497 1 Ar 21.7392 18.6336 3.1056
498 1 Ar 21.7392 18.6336 6.2112
499 1 Ar 21.7392 18.6336 9.3168
ITEM: TIMESTEP
19999
ITEM: NUMBER OF ATOMS
500
ITEM: BOX BOUNDS pp pp pp
0 27.9504
0 27.9504
0 27.9504
ITEM: ATOMS id type element xu yu zu
0 1 Ar 25.7737 27.4308 27.2305
1 1 Ar 27.2577 26.3313 2.314
2 1 Ar 27.6307 27.6429 5.4319
3 1 Ar 26.6998 27.4374 8.85497
4 1 Ar 27.0567 27.671 12.2466
5 1 Ar 27.1662 27.2165 15.7129
6 1 Ar 27.6768 27.1434 19.3144
7 1 Ar 26.0875 27.5498 22.8362
8 1 Ar 27.664 2.21142 27.2297
9 1 Ar 26.4199 2.68339 2.44572
10 1 Ar 25.3729 3.00694 5.76177
11 1 Ar 27.7658 2.74357 8.04213
12 1 Ar 27.6722 2.95356 11.8018
13 1 Ar 26.4219 2.89543 15.4529
14 1 Ar 27.3428 2.38949 18.9286
15 1 Ar 26.5729 2.97907 22.4168
16 1 Ar 26.4773 6.32604 27.9261
17 1 Ar 0.014738 5.88621 2.79224
18 1 Ar 27.0297 6.02536 5.80334
19 1 Ar 26.4918 5.8041 9.21049
20 1 Ar 26.9383 6.19328 12.7622
21 1 Ar 27.7414 6.09131 15.7574
22 1 Ar 27.539 5.79956 18.8973
23 1 Ar 27.6165 6.29989 22.3107
24 1 Ar 0.210014 9.586 27.6768
25 1 Ar 26.7537 9.1878 2.8329
26 1 Ar 26.9765 9.23356 6.30927
27 1 Ar 27.8431 8.95073 9.46727
28 1 Ar 27.1216 9.27535 12.474
29 1 Ar 27.347 9.33661 15.7317
30 1 Ar 27.3097 9.1733 19.1424
31 1 Ar 26.5165 9.39538 22.5171
32 1 Ar 27.5061 12.6907 26.5055
33 1 Ar 27.1251 12.6951 2.27985
34 1 Ar 0.103957 12.2614 5.66748
35 1 Ar 26.2469 12.182 8.87591
36 1 Ar 27.1956 12.3964 12.6629
37 1 Ar 27.4553 12.4312 15.9381
38 1 Ar 25.6643 11.989 19.4215
39 1 Ar 0.152745 12.588 21.8881
40 1 Ar 27.0682 15.8487 27.832
41 1 Ar 27.6425 15.947 3.32901
42 1 Ar 27.3788 15.3726 6.39821
43 1 Ar 27.5062 15.1 9.55599
44 1 Ar 27.1761 15.8986 12.4354
45 1 Ar 26.6063 15.3478 15.6506
46 1 Ar 27.3759 15.1409 18.9489
47 1 Ar 26.8398 15.4448 23.2546
48 1 Ar 27.8382 19.0601 27.6642
49 1 Ar 27.539 19.5279 3.04822
50 1 Ar 27.3754 18.7633 6.20381
51 1 Ar 27.8579 18.9343 9.38482
52 1 Ar 26.1304 18.9139 12.5366
53 1 Ar 27.2122 19.0981 15.419
54 1 Ar 27.182 18.7467 18.795
55 1 Ar 27.484 18.8681 22.1963
56 1 Ar 26.6147 22.6116 27.3608
57 1 Ar 27.8857 22.7032 2.45736
58 1 Ar 26.4073 22.1828 5.52075
59 1 Ar 27.4229 22.2421 8.84529
60 1 Ar 26.2882 23.4089 12.0716
61 1 Ar 26.6481 22.5481 15.5633
62 1 Ar 27.4352 22.0988 18.9811
63 1 Ar 27.4785 22.94 22.3346
64 1 Ar 2.00791 27.1579 26.6146
65 1 Ar 3.05209 27.8369 1.80098
66 1 Ar 3.106 26.6581 5.76515
67 1 Ar 3.73843 25.0675 9.27742
68 1 Ar 2.62408 27.9106 11.7551
69 1 Ar 2.63554 27.0082 16.2418
70 1 Ar 3.18091 26.0479 19.4061
71 1 Ar 1.76158 26.6749 23.0973
72 1 Ar 2.90592 2.58314 26.8641
73 1 Ar 1.82003 3.02862 2.15917
74 1 Ar 2.24968 2.06331 5.75235
75 1 Ar 2.95706 2.02049 9.15806
76 1 Ar 2.76958 3.10427 12.4202
77 1 Ar 2.58465 2.74932 15.7494
78 1 Ar 2.95265 1.62183 19.1341
79 1 Ar 2.72588 2.96545 22.3774
80 1 Ar 2.59155 5.65852 27.1967
81 1 Ar 3.1887 6.3186 2.84114
82 1 Ar 2.80737 5.386 5.98591
83 1 Ar 1.88018 5.25174 9.64966
84 1 Ar 2.57716 6.30086 12.834
85 1 Ar 2.94629 5.92936 16.1694
86 1 Ar 3.06426 5.2061 19.9341
87 1 Ar 2.70429 6.05412 23.5544
88 1 Ar 3.422 8.82876 27.5715
89 1 Ar 2.42309 9.82517 2.68209
90 1 Ar 2.42596 8.85314 5.78245
91 1 Ar 3.05184 8.83824 9.17111
92 1 Ar 3.25038 9.56513 12.5421
93 1 Ar 2.58488 9.30033 15.5322
94 1 Ar 2.91886 8.57206 18.8739
95 1 Ar 1.91634 9.2467 22.0989
96 1 Ar 2.81839 12.2936 27.13
97 1 Ar 2.85071 13.0532 2.53173
98 1 Ar 3.12939 12.1417 5.82095
99 1 Ar 2.43057 12.0359 9.40367
100 1 Ar 2.93336 12.5055 12.722
101 1 Ar 3.05815 12.6161 15.9422
102 1 Ar 2.00927 12.0152 19.0795
103 1 Ar 2.80866 11.8939 23.852
104 1 Ar 2.92413 15.6527 27.1767
105 1 Ar 2.75387 16.3595 2.30886
106 1 Ar 2.61609 15.9515 5.77482
107 1 Ar 3.1544 15.3131 8.96365
108 1 Ar 2.7523 15.8793 12.516
109 1 Ar 2.4471 15.7157 15.7477
110 1 Ar 2.86758 15.0728 19.1838
111 1 Ar 2.85571 15.4394 22.901
112 1 Ar 3.52773 19.1377 27.2952
113 1 Ar 3.01098 19.7489 2.59757
114 1 Ar 3.25633 19.2308 5.93749
115 1 Ar 3.13411 18.5352 9.25213
116 1 Ar 2.57857 19.2072 12.465
117 1 Ar 2.40267 19.0657 16.1544
118 1 Ar 2.47247 18.7612 19.3596
119 1 Ar 2.66727 19.3768 22.6618
120 1 Ar 2.43351 22.3856 27.5793
121 1 Ar 2.61932 24.6697 3.17377
122 1 Ar 2.1154 22.2761 5.44319
123 1 Ar 3.01133 21.6969 8.6028
124 1 Ar 2.06449 22.9589 12.3478
125 1 Ar 2.73127 23.3075 15.7851
126 1 Ar 2.90663 22.0025 19.5537
127 1 Ar 2.84313 23.2202 22.834
128 1 Ar 5.7596 26.8311 27.2215
129 1 Ar 6.37001 27.4073 3.38522
130 1 Ar 5.96417 0.192761 6.44474
131 1 Ar 6.06123 27.842 9.69617
132 1 Ar 5.33393 26.1501 12.5029
133 1 Ar 6.79217 26.7614 16.0635
134 1 Ar 6.0827 27.7939 19.1646
135 1 Ar 5.58228 27.2792 22.6817
136 1 Ar 6.1183 2.3323 27.5688
137 1 Ar 5.21423 2.48375 2.80673
138 1 Ar 6.15913 3.15533 5.72648
139 1 Ar 6.21062 3.01113 9.09184
140 1 Ar 6.25303 2.75857 12.6433
141 1 Ar 5.78179 2.12657 16.3222
142 1 Ar 6.02369 2.95281 19.8669
143 1 Ar 6.34067 2.83278 23.2799
144 1 Ar 5.7716 5.81867 27.2794
145 1 Ar 6.22973 5.4452 2.90843
146 1 Ar 6.16087 6.33506 5.93641
147 1 Ar 5.62181 6.23161 9.09379
148 1 Ar 5.92851 5.98308 12.4318
149 1 Ar 6.3211 5.46704 15.7304
150 1 Ar 6.03858 6.33114 18.89
151 1 Ar 5.9597 6.02829 22.0897
152 1 Ar 6.67753 9.13606 0.179342
153 1 Ar 5.78544 8.71864 3.20028
154 1 Ar 5.5927 9.29416 6.56074
155 1 Ar 6.34983 9.55079 9.9132
156 1 Ar 6.25734 9.2629 13.0264
157 1 Ar 5.87938 8.86464 16.2861
158 1 Ar 6.36518 9.66786 19.3104
159 1 Ar 5.18327 9.09724 22.6159
160 1 Ar 5.89909 12.5187 27.8928
161 1 Ar 6.02474 12.4559 3.0766
162 1 Ar 6.45365 12.3093 6.33667
163 1 Ar 5.89375 12.5956 9.36415
164 1 Ar 6.15318 12.7928 12.488
165 1 Ar 6.20188 12.4009 15.5844
166 1 Ar 5.43177 12.5856 18.7626
167 1 Ar 6.0364 12.0264 21.8635
168 1 Ar 5.86248 15.7291 26.4408
169 1 Ar 5.95231 15.5379 2.33799
170 1 Ar 5.80878 15.472 5.83148
171 1 Ar 6.25709 15.8241 9.00482
172 1 Ar 6.20234 16.1374 12.3984
173 1 Ar 6.2377 15.4855 15.6192
174 1 Ar 6.14661 16.2092 18.6631
175 1 Ar 6.50194 15.3185 21.8291
176 1 Ar 6.50103 18.9132 26.5412
177 1 Ar 6.14916 18.8849 2.34402
178 1 Ar 6.39995 19.0265 5.65552
179 1 Ar 6.13514 19.3056 9.07787
180 1 Ar 6.00016 19.3108 12.4734
181 1 Ar 5.64774 18.5494 15.9432
182 1 Ar 5.89355 19.1514 19.5911
183 1 Ar 5.63557 17.8697 23.6369
184 1 Ar 6.0889 22.1765 27.3771
185 1 Ar 5.30966 22.3804 3.09404
186 1 Ar 5.70663 22.7774 6.41495
187 1 Ar 6.25074 22.5759 10.0306
188 1 Ar 5.16896 22.5011 13.0792
189 1 Ar 6.05485 22.0946 16.3567
190 1 Ar 6.29095 22.8932 20.1826
191 1 Ar 6.18307 21.5445 23.2756
192 1 Ar 9.16037 26.7574 25.7294
193 1 Ar 9.44875 27.1424 1.9499
194 1 Ar 8.86462 26.318 5.48448
195 1 Ar 9.31199 27.8537 8.83861
196 1 Ar 8.86978 26.4729 12.1908
197 1 Ar 9.92859 0.321347 15.5092
198 1 Ar 9.26658 27.1186 18.7072
199 1 Ar 9.23067 27.0134 22.4286
200 1 Ar 9.29767 2.35164 27.4766
201 1 Ar 8.67613 3.09731 3.06856
202 1 Ar 9.30449 1.92282 6.26615
203 1 Ar 9.54325 3.27063 9.29423
204 1 Ar 9.60766 2.00905 12.171
205 1 Ar 8.99004 3.26885 14.97
206 1 Ar 9.36131 2.5847 18.4242
207 1 Ar 9.17331 2.40776 21.8901
208 1 Ar 8.97913 5.92273 27.2008
209 1 Ar 9.48022 6.22001 2.86846
210 1 Ar 9.49584 5.27983 5.91692
211 1 Ar 9.19228 6.3822 8.84539
212 1 Ar 9.13412 6.02331 12.5106
213 1 Ar 9.35896 6.42642 16.1295
214 1 Ar 9.24401 5.932 19.361
215 1 Ar 9.39122 6.10034 23.4998
216 1 Ar 9.74173 9.22121 27.2
217 1 Ar 9.18752 9.37851 2.55818
218 1 Ar 8.97052 8.67269 5.79491
219 1 Ar 9.41271 9.61315 9.24866
220 1 Ar 9.25537 9.37666 12.4203
221 1 Ar 9.04584 9.49516 15.5295
222 1 Ar 9.55918 9.38018 18.6698
223 1 Ar 8.8042 8.96031 21.9276
224 1 Ar 8.66368 12.171 26.3182
225 1 Ar 9.32074 12.5736 2.47837
226 1 Ar 9.48523 12.5259 5.9954
227 1 Ar 9.26083 12.7256 9.1495
228 1 Ar 9.50913 12.6949 12.553
229 1 Ar 9.45122 12.7172 16.0236
230 1 Ar 9.14712 12.6616 19.6791
231 1 Ar 9.09405 11.9004 23.2444
232 1 Ar 8.89131 15.2278 27.7555
233 1 Ar 9.06262 15.6183 3.23162
234 1 Ar 8.97539 15.8239 6.29539
235 1 Ar 9.45474 15.7694 9.37911
236 1 Ar 9.23331 15.8238 12.4333
237 1 Ar 9.6403 16.0864 15.8032
238 1 Ar 9.26229 15.5971 18.9243
239 1 Ar 8.98967 15.5981 24.1166
240 1 Ar 9.98718 18.6764 26.293
241 1 Ar 9.30457 18.7781 2.85242
242 1 Ar 9.59083 19.0692 6.06571
243 1 Ar 9.27756 19.2185 9.27403
244 1 Ar 9.12709 19.325 12.3027
245 1 Ar 9.0824 19.3388 15.4787
246 1 Ar 8.9383 18.8515 18.9423
247 1 Ar 8.96789 19.2496 22.5058
248 1 Ar 9.13458 23.0575 26.639
249 1 Ar 8.84015 22.5941 1.89852
250 1 Ar 9.15925 22.3093 5.59561
251 1 Ar 9.25953 22.651 8.63853
252 1 Ar 8.96442 23.05 11.9583
253 1 Ar 9.1933 22.5835 15.2219
254 1 Ar 9.45236 22.2876 18.7504
255 1 Ar 9.48283 22.7947 22.3484
256 1 Ar 12.1054 27.7881 27.7952
257 1 Ar 12.5839 27.0846 3.3066
258 1 Ar 12.0613 27.2119 6.7059
259 1 Ar 12.8305 27.0388 10.2901
260 1 Ar 12.1302 27.9504 13.2747
261 1 Ar 12.0583 25.4692 15.8771
262 1 Ar 12.4132 27.3578 18.6134
263 1 Ar 12.9325 0.139212 22.0966
264 1 Ar 12.4459 3.13532 26.3785
265 1 Ar 12.0014 2.59803 1.82553
266 1 Ar 12.3512 2.99318 5.64062
267 1 Ar 12.5664 2.27288 9.30222
268 1 Ar 12.9847 2.97624 12.4319
269 1 Ar 12.3719 2.60977 15.6347
270 1 Ar 12.6536 2.74556 18.9496
271 1 Ar 12.5273 3.4088 22.7192
272 1 Ar 12.2453 6.15012 27.8348
273 1 Ar 12.715 6.17611 3.2421
274 1 Ar 13.1547 6.0925 6.23785
275 1 Ar 12.3739 5.71219 9.34294
276 1 Ar 12.4224 6.2112 12.4224
277 1 Ar 12.459 5.64153 15.8062
278 1 Ar 12.4104 6.41106 18.9479
279 1 Ar 12.4139 6.77935 22.7248
280 1 Ar 12.767 9.2024 27.2199
281 1 Ar 12.3893 9.23524 2.56898
282 1 Ar 12.3139 9.10856 5.82833
283 1 Ar 12.4841 9.08128 9.31516
284 1 Ar 12.2847 9.35271 12.5373
285 1 Ar 12.351 8.98706 15.736
286 1 Ar 12.6528 9.48591 18.8911
287 1 Ar 12.7548 9.90549 22.2099
288 1 Ar 11.9172 12.5237 26.6185
289 1 Ar 12.4829 12.4343 2.38905
290 1 Ar 12.9523 12.3945 5.82781
291 1 Ar 12.1892 12.1782 9.72362
292 1 Ar 13.0688 12.4764 13.0289
293 1 Ar 12.3549 12.0691 16.0047
294 1 Ar 12.5305 12.7931 19.4884
295 1 Ar 12.0346 13.0888 23.3106
296 1 Ar 12.2198 15.4991 27.6073
297 1 Ar 12.5937 15.6761 2.78238
298 1 Ar 12.4294 15.9868 5.98983
299 1 Ar 12.5603 15.41 9.25576
300 1 Ar 12.2908 15.5389 12.4427
301 1 Ar 12.7402 15.2157 15.5788
302 1 Ar 12.3862 15.7653 18.7253
303 1 Ar 12.4869 15.8809 21.9019
304 1 Ar 12.7005 18.6778 0.23596
305 1 Ar 12.4328 18.6501 3.43984
306 1 Ar 12.5968 19.3562 6.77578
307 1 Ar 12.5164 18.6315 9.6197
308 1 Ar 12.132 18.6925 12.6293
309 1 Ar 12.0694 18.592 16.2051
310 1 Ar 12.653 18.9544 19.5047
311 1 Ar 12.9406 18.8339 22.9274
312 1 Ar 12.5837 21.6773 26.7562
313 1 Ar 12.2887 22.3289 2.55021
314 1 Ar 12.754 23.0551 5.82359
315 1 Ar 12.476 21.9936 9.18799
316 1 Ar 12.8744 22.1495 12.5887
317 1 Ar 12.2316 22.0462 15.6271
318 1 Ar 12.7214 22.9568 19.2421
319 1 Ar 12.5608 22.8677 22.8622
320 1 Ar 15.4153 27.0438 27.4305
321 1 Ar 16.152 27.8691 3.33119
322 1 Ar 15.4972 27.0147 6.60132
323 1 Ar 16.0449 26.0662 9.68531
324 1 Ar 15.1718 27.7225 12.6308
325 1 Ar 16.2541 26.3091 15.8363
326 1 Ar 15.5062 27.5264 18.9786
327 1 Ar 16.4834 26.0917 22.4347
328 1 Ar 15.715 2.42203 27.6233
329 1 Ar 15.4601 3.31082 2.85754
330 1 Ar 15.3757 2.76414 5.96639
331 1 Ar 16.2373 1.99601 9.05903
332 1 Ar 16.3458 2.74339 12.0869
333 1 Ar 15.2825 2.29715 15.3038
334 1 Ar 16.1251 2.86662 19.4221
335 1 Ar 15.6865 2.85713 22.6278
336 1 Ar 15.3192 5.92321 27.1686
337 1 Ar 15.8351 6.27544 2.5384
338 1 Ar 16.3189 6.02262 5.85911
339 1 Ar 15.616 6.01012 9.07597
340 1 Ar 15.5656 6.27086 12.3557
341 1 Ar 15.8288 5.60506 15.4316
342 1 Ar 15.4486 5.99431 18.6503
343 1 Ar 15.7433 6.2006 22.2642
344 1 Ar 16.0882 9.01508 27.6455
345 1 Ar 16.5811 9.22032 3.04454
346 1 Ar 15.3984 8.87576 6.06224
347 1 Ar 16.2728 9.48282 9.3956
348 1 Ar 15.2327 9.33805 12.6334
349 1 Ar 16.169 9.13269 15.8105
350 1 Ar 15.6939 9.14948 19.1743
351 1 Ar 16.0234 9.46962 23.2793
352 1 Ar 16.0794 12.5319 27.5013
353 1 Ar 15.3798 12.3555 3.23624
354 1 Ar 16.389 11.8858 6.29573
355 1 Ar 15.1306 12.9151 9.21909
356 1 Ar 16.4452 12.0959 12.4466
357 1 Ar 15.5458 12.5143 15.8089
358 1 Ar 16.2261 12.4075 19.0553
359 1 Ar 14.9871 12.4994 22.1827
360 1 Ar 15.1963 16.2086 27.204
361 1 Ar 15.985 15.5142 2.50841
362 1 Ar 15.5322 15.102 6.26302
363 1 Ar 15.7367 16.1002 9.64148
364 1 Ar 15.2714 15.2246 12.9054
365 1 Ar 16.5132 16.1326 15.962
366 1 Ar 15.6526 15.971 19.1898
367 1 Ar 15.9442 15.6337 22.468
368 1 Ar 15.9434 19.1277 26.686
369 1 Ar 15.5895 19.1364 2.29915
370 1 Ar 15.5717 18.5725 5.89466
371 1 Ar 15.6145 19.5324 9.68975
372 1 Ar 15.955 18.5166 12.6151
373 1 Ar 15.2891 19.2967 15.6628
374 1 Ar 16.2806 19.9253 19.1906
375 1 Ar 16.361 18.973 22.6765
376 1 Ar 15.7546 22.3174 27.6998
377 1 Ar 15.6255 22.6498 3.17226
378 1 Ar 15.9289 21.7175 6.12565
379 1 Ar 15.6112 22.9443 8.94354
380 1 Ar 16.2799 22.363 12.051
381 1 Ar 15.7673 22.8751 15.2658
382 1 Ar 15.913 23.8904 18.654
383 1 Ar 15.874 22.6916 22.1353
384 1 Ar 18.8231 26.8003 26.7777
385 1 Ar 19.1446 27.2601 2.02897
386 1 Ar 18.9784 27.0149 5.71298
387 1 Ar 19.6828 26.3152 9.45516
388 1 Ar 18.2983 27.7756 11.9637
389 1 Ar 19.774 26.498 14.7635
390 1 Ar 18.9561 27.4068 17.9421
391 1 Ar 19.2577 0.138106 21.7823
392 1 Ar 19.0678 2.35054 26.6812
393 1 Ar 18.4301 2.47427 2.54474
394 1 Ar 18.7574 2.22995 5.88285
395 1 Ar 19.5849 2.48017 9.1695
396 1 Ar 19.6603 2.81836 12.7332
397 1 Ar 18.8587 2.21973 15.813
398 1 Ar 19.3218 3.14332 18.984
399 1 Ar 18.691 3.1864 23.4979
400 1 Ar 18.3448 5.42999 26.73
401 1 Ar 18.947 5.92817 2.2008
402 1 Ar 19.5647 5.57171 5.69808
403 1 Ar 18.7375 5.98458 8.99022
404 1 Ar 18.6651 5.97343 12.246
405 1 Ar 19.0245 5.67436 15.4668
406 1 Ar 19.0051 6.52379 18.7588
407 1 Ar 19.0881 6.21816 21.906
408 1 Ar 19.2894 8.73187 27.925
409 1 Ar 19.6804 9.09076 3.50946
410 1 Ar 18.573 9.05744 6.74433
411 1 Ar 19.7011 9.11781 9.83293
412 1 Ar 18.5688 9.55805 12.9372
413 1 Ar 19.5691 8.78902 16.2682
414 1 Ar 19.2461 9.76573 19.8265
415 1 Ar 19.9592 9.24286 23.448
416 1 Ar 20.2987 12.3607 27.6311
417 1 Ar 18.7215 12.4097 2.45465
418 1 Ar 19.6217 12.1942 5.75747
419 1 Ar 18.612 12.2244 8.92672
420 1 Ar 20.1035 12.4926 12.2955
421 1 Ar 18.95 12.6532 15.513
422 1 Ar 19.4992 12.8392 18.7533
423 1 Ar 18.2767 12.3714 22.4007
424 1 Ar 18.6278 15.1051 27.101
425 1 Ar 19.6822 15.724 2.87667
426 1 Ar 18.9481 15.5367 6.23575
427 1 Ar 19.0431 15.6982 9.26891
428 1 Ar 18.4541 15.3905 12.6374
429 1 Ar 19.7765 16.1591 15.7004
430 1 Ar 19.2625 15.9574 18.6777
431 1 Ar 19.0862 15.5249 22.095
432 1 Ar 19.8945 18.9611 27.0666
433 1 Ar 18.8913 19.6138 2.85349
434 1 Ar 19.1914 18.8896 6.22419
435 1 Ar 18.6752 18.9872 9.31204
436 1 Ar 19.0806 18.9439 12.6038
437 1 Ar 19.3516 19.3484 15.9795
438 1 Ar 19.4404 18.9022 19.7121
439 1 Ar 19.4926 19.3049 23.1084
440 1 Ar 19.2875 22.6483 26.3518
441 1 Ar 19.0595 23.8591 1.90922
442 1 Ar 19.5032 22.08 5.2708
443 1 Ar 19.87 22.8523 8.66733
444 1 Ar 19.7415 22.1131 11.9651
445 1 Ar 19.4667 23.117 15.5385
446 1 Ar 19.7944 22.1778 18.7237
447 1 Ar 19.3317 22.9404 22.9238
448 1 Ar 22.319 26.9036 27.3112
449 1 Ar 23.5871 27.8823 2.85747
450 1 Ar 22.2692 25.6958 6.05775
451 1 Ar 23.096 27.3855 9.40817
452 1 Ar 22.5151 26.9709 12.3803
453 1 Ar 23.4764 26.9222 15.9043
454 1 Ar 22.0245 26.9958 19.3995
455 1 Ar 22.8613 27.6068 22.8195
456 1 Ar 22.2768 2.24524 27.0436
457 1 Ar 22.0246 3.25481 2.59702
458 1 Ar 22.1547 1.60955 5.81613
459 1 Ar 23.0537 2.98247 8.9879
460 1 Ar 23.6926 3.00777 12.3589
461 1 Ar 22.2251 2.13279 15.6557
462 1 Ar 23.3808 2.06587 18.9534
463 1 Ar 22.0216 2.83481 22.3885
464 1 Ar 22.0106 5.73842 27.2459
465 1 Ar 22.2971 6.79405 2.72379
466 1 Ar 22.8995 5.32615 6.09078
467 1 Ar 21.8256 5.89695 9.27903
468 1 Ar 21.8569 6.45218 12.3846
469 1 Ar 22.6887 5.44623 15.4179