ITEM: TIMESTEP
-1
ITEM: NUMBER OF ATOMS
500
ITEM: BOX BOUNDS pp pp pp
0 27.9504
0 27.9504
0 27.9504
ITEM: ATOMS id type element xu yu zu
0 1 Ar 0 0 0
1 1 Ar 0 0 3.1056
2 1 Ar 0 0 6.2112
3 1 Ar 0 0 9.3168
4 1 Ar 0 0 12.4224
5 1 Ar 0 0 15.528
6 1 Ar 0 0 18.6336
7 1 Ar 0 0 21.7392
8 1 Ar 0 3.1056 0
9 1 Ar 0 3.1056 3.1056
10 1 Ar 0 3.1056 6.2112
11 1 Ar 0 3.1056 9.3168
12 1 Ar 0 3.1056 12.4224
13 1 Ar 0 3.1056 15.528
14 1 Ar 0 3.1056 18.6336
15 1 Ar 0 3.1056 21.7392
16 1 Ar 0 6.2112 0
17 1 Ar 0 6.2112 3.1056
18 1 Ar 0 6.2112 6.2112
19 1 Ar 0 6.2112 9.3168
20 1 Ar 0 6.2112 12.4224
21 1 Ar 0 6.2112 15.528
22 1 Ar 0 6.2112 18.6336
23 1 Ar 0 6.2112 21.7392
24 1 Ar 0 9.3168 0
25 1 Ar 0 9.3168 3.1056
26 1 Ar 0 9.3168 6.2112
27 1 Ar 0 9.3168 9.3168
28 1 Ar 0 9.3168 12.4224
29 1 Ar 0 9.3168 15.528
30 1 Ar 0 9.3168 18.6336
31 1 Ar 0 9.3168 21.7392
32 1 Ar 0 12.4224 0
33 1 Ar 0 12.4224 3.1056
34 1 Ar 0 12.4224 6.2112
35 1 Ar 0 12.4224 9.3168
36 1 Ar 0 12.4224 12.4224
37 1 Ar 0 12.4224 15.528
38 1 Ar 0 12.4224 18.6336
39 1 Ar 0 12.4224 21.7392
40 1 Ar 0 15.528 0
41 1 Ar 0 15.528 3.1056
42 1 Ar 0 15.528 6.2112
43 1 Ar 0 15.528 9.3168
44 1 Ar 0 15.528 12.4224
45 1 Ar 0 15.528 15.528
46 1 Ar 0 15.528 18.6336
47 1 Ar 0 15.528 21.7392
48 1 Ar 0 18.6336 0
49 1 Ar 0 18.6336 3.1056
50 1 Ar 0 18.6336 6.2112
51 1 Ar 0 18.6336 9.3168
52 1 Ar 0 18.6336 12.4224
53 1 Ar 0 18.6336 15.528
54 1 Ar 0 18.6336 18.6336
55 1 Ar 0 18.6336 21.7392
56 1 Ar 0 21.7392 0
57 1 Ar 0 21.7392 3.1056
58 1 Ar 0 21.7392 6.2112
59 1 Ar 0 21.7392 9.3168
60 1 Ar 0 21.7392 12.4224
61 1 Ar 0 21.7392 15.528
62 1 Ar 0 21.7392 18.6336
63 1 Ar 0 21.7392 21.7392
64 1 Ar 3.1056 0 0
65 1 Ar 3.1056 0 3.1056
66 1 Ar 3.1056 0 6.2112
67 1 Ar 3.1056 0 9.3168
68 1 Ar 3.1056 0 12.4224
69 1 Ar 3.1056 0 15.528
70 1 Ar 3.1056 0 18.6336
71 1 Ar 3.1056 0 21.7392
72 1 Ar 3.1056 3.1056 0
73 1 Ar 3.1056 3.1056 3.1056
74 1 Ar 3.1056 3.1056 6.2112
75 1 Ar 3.1056 3.1056 9.3168
76 1 Ar 3.1056 3.1056 12.4224
77 1 Ar 3.1056 3.1056 15.528
78 1 Ar 3.1056 3.1056 18.6336
79 1 Ar 3.1056 3.1056 21.7392
80 1 Ar 3.1056 6.2112 0
81 1 Ar 3.1056 6.2112 3.1056
82 1 Ar 3.1056 6.2112 6.2112
83 1 Ar 3.1056 6.2112 9.3168
84 1 Ar 3.1056 6.2112 12.4224
85 1 Ar 3.1056 6.2112 15.528
86 1 Ar 3.1056 6.2112 18.6336
87 1 Ar 3.1056 6.2112 21.7392
88 1 Ar 3.1056 9.3168 0
89 1 Ar 3.1056 9.3168 3.1056
90 1 Ar 3.1056 9.3168 6.2112
91 1 Ar 3.1056 9.3168 9.3168
92 1 Ar 3.1056 9.3168 12.4224
93 1 Ar 3.1056 9.3168 15.528
94 1 Ar 3.1056 9.3168 18.6336
95 1 Ar 3.1056 9.3168 21.7392
96 1 Ar 3.1056 12.4224 0
97 1 Ar 3.1056 12.4224 3.1056
98 1 Ar 3.1056 12.4224 6.2112
99 1 Ar 3.1056 12.4224 9.3168
100 1 Ar 3.1056 12.4224 12.4224
101 1 Ar 3.1056 12.4224 15.528
102 1 Ar 3.1056 12.4224 18.6336
103 1 Ar 3.1056 12.4224 21.7392
104 1 Ar 3.1056 15.528 0
105 1 Ar 3.1056 15.528 3.1056
106 1 Ar 3.1056 15.528 6.2112
107 1 Ar 3.1056 15.528 9.3168
108 1 Ar 3.1056 15.528 12.4224
109 1 Ar 3.1056 15.528 15.528
110 1 Ar 3.1056 15.528 18.6336
111 1 Ar 3.1056 15.528 21.7392
112 1 Ar 3.1056 18.6336 0
113 1 Ar 3.1056 18.6336 3.1056
114 1 Ar 3.1056 18.6336 6.2112
115 1 Ar 3.1056 18.6336 9.3168
116 1 Ar 3.1056 18.6336 12.4224
117 1 Ar 3.1056 18.6336 15.528
118 1 Ar 3.1056 18.6336 18.6336
119 1 Ar 3.1056 18.6336 21.7392
120 1 Ar 3.1056 21.7392 0
121 1 Ar 3.1056 21.7392 3.1056
122 1 Ar 3.1056 21.7392 6.2112
123 1 Ar 3.1056 21.7392 9.3168
124 1 Ar 3.1056 21.7392 12.4224
125 1 Ar 3.1056 21.7392 15.528
126 1 Ar 3.1056 21.7392 18.6336
127 1 Ar 3.1056 21.7392 21.7392
128 1 Ar 6.2112 0 0
129 1 Ar 6.2112 0 3.1056
130 1 Ar 6.2112 0 6.2112
131 1 Ar 6.2112 0 9.3168
132 1 Ar 6.2112 0 12.4224
133 1 Ar 6.2112 0 15.528
134 1 Ar 6.2112 0 18.6336
135 1 Ar 6.2112 0 21.7392
136 1 Ar 6.2112 3.1056 0
137 1 Ar 6.2112 3.1056 3.1056
138 1 Ar 6.2112 3.1056 6.2112
139 1 Ar 6.2112 3.1056 9.3168
140 1 Ar 6.2112 3.1056 12.4224
141 1 Ar 6.2112 3.1056 15.528
142 1 Ar 6.2112 3.1056 18.6336
143 1 Ar 6.2112 3.1056 21.7392
144 1 Ar 6.2112 6.2112 0
145 1 Ar 6.2112 6.2112 3.1056
146 1 Ar 6.2112 6.2112 6.2112
147 1 Ar 6.2112 6.2112 9.3168
148 1 Ar 6.2112 6.2112 12.4224
149 1 Ar 6.2112 6.2112 15.528
150 1 Ar 6.2112 6.2112 18.6336
151 1 Ar 6.2112 6.2112 21.7392
152 1 Ar 6.2112 9.3168 0
153 1 Ar 6.2112 9.3168 3.1056
154 1 Ar 6.2112 9.3168 6.2112
155 1 Ar 6.2112 9.3168 9.3168
156 1 Ar 6.2112 9.3168 12.4224
157 1 Ar 6.2112 9.3168 15.528
158 1 Ar 6.2112 9.3168 18.6336
159 1 Ar 6.2112 9.3168 21.7392
160 1 Ar 6.2112 12.4224 0
161 1 Ar 6.2112 12.4224 3.1056
162 1 Ar 6.2112 12.4224 6.2112
163 1 Ar 6.2112 12.4224 9.3168
164 1 Ar 6.2112 12.4224 12.4224
165 1 Ar 6.2112 12.4224 15.528
166 1 Ar 6.2112 12.4224 18.6336
167 1 Ar 6.2112 12.4224 21.7392
168 1 Ar 6.2112 15.528 0
169 1 Ar 6.2112 15.528 3.1056
170 1 Ar 6.2112 15.528 6.2112
171 1 Ar 6.2112 15.528 9.3168
172 1 Ar 6.2112 15.528 12.4224
173 1 Ar 6.2112 15.528 15.528
174 1 Ar 6.2112 15.528 18.6336
175 1 Ar 6.2112 15.528 21.7392
176 1 Ar 6.2112 18.6336 0
177 1 Ar 6.2112 18.6336 3.1056
178 1 Ar 6.2112 18.6336 6.2112
179 1 Ar 6.2112 18.6336 9.3168
180 1 Ar 6.2112 18.6336 12.4224
181 1 Ar 6.2112 18.6336 15.528
182 1 Ar 6.2112 18.6336 18.6336
183 1 Ar 6.2112 18.6336 21.7392
184 1 Ar 6.2112 21.7392 0
185 1 Ar 6.2112 21.7392 3.1056
186 1 Ar 6.2112 21.7392 6.2112
187 1 Ar 6.2112 21.7392 9.3168
188 1 Ar 6.2112 21.7392 12.4224
189 1 Ar 6.2112 21.7392 15.528
190 1 Ar 6.2112 21.7392 18.6336
191 1 Ar 6.2112 21.7392 21.7392
192 1 Ar 9.3168 0 0
193 1 Ar 9.3168 0 3.1056
194 1 Ar 9.3168 0 6.2112
195 1 Ar 9.3168 0 9.3168
196 1 Ar 9.3168 0 12.4224
197 1 Ar 9.3168 0 15.528
198 1 Ar 9.3168 0 18.6336
199 1 Ar 9.3168 0 21.7392
200 1 Ar 9.3168 3.1056 0
201 1 Ar 9.3168 3.1056 3.1056
202 1 Ar 9.3168 3.1056 6.2112
203 1 Ar 9.3168 3.1056 9.3168
204 1 Ar 9.3168 3.1056 12.4224
205 1 Ar 9.3168 3.1056 15.528
206 1 Ar 9.3168 3.1056 18.6336
207 1 Ar 9.3168 3.1056 21.7392
208 1 Ar 9.3168 6.2112 0
209 1 Ar 9.3168 6.2112 3.1056
210 1 Ar 9.3168 6.2112 6.2112
211 1 Ar 9.3168 6.2112 9.3168
212 1 Ar 9.3168 6.2112 12.4224
213 1 Ar 9.3168 6.2112 15.528
214 1 Ar 9.3168 6.2112 18.6336
215 1 Ar 9.3168 6.2112 21.7392
216 1 Ar 9.3168 9.3168 0
217 1 Ar 9.3168 9.3168 3.1056
218 1 Ar 9.3168 9.3168 6.2112
219 1 Ar 9.3168 9.3168 9.3168
220 1 Ar 9.3168 9.3168 12.4224
221 1 Ar 9.3168 9.3168 15.528
222 1 Ar 9.3168 9.3168 18.6336
223 1 Ar 9.3168 9.3168 21.7392
224 1 Ar 9.3168 12.4224 0
225 1 Ar 9.3168 12.4224 3.1056
226 1 Ar 9.3168 12.4224 6.2112
227 1 Ar 9.3168 12.4224 9.3168
228 1 Ar 9.3168 12.4224 12.4224
229 1 Ar 9.3168 12.4224 15.528
230 1 Ar 9.3168 12.4224 18.6336
231 1 Ar 9.3168 12.4224 21.7392
232 1 Ar 9.3168 15.528 0
233 1 Ar 9.3168 15.528 3.1056
234 1 Ar 9.3168 15.528 6.2112
235 1 Ar 9.3168 15.528 9.3168
236 1 Ar 9.3168 15.528 12.4224
237 1 Ar 9.3168 15.528 15.528
238 1 Ar 9.3168 15.528 18.6336
239 1 Ar 9.3168 15.528 21.7392
240 1 Ar 9.3168 18.6336 0
241 1 Ar 9.3168 18.6336 3.1056
242 1 Ar 9.3168 18.6336 6.2112
243 1 Ar 9.3168 18.6336 9.3168
244 1 Ar 9.3168 18.6336 12.4224
245 1 Ar 9.3168 18.6336 15.528
246 1 Ar 9.3168 18.6336 18.6336
247 1 Ar 9.3168 18.6336 21.7392
248 1 Ar 9.3168 21.7392 0
249 1 Ar 9.3168 21.7392 3.1056
250 1 Ar 9.3168 21.7392 6.2112
251 1 Ar 9.3168 21.7392 9.3168
252 1 Ar 9.3168 21.7392 12.4224
253 1 Ar 9.3168 21.7392 15.528
254 1 Ar 9.3168 21.7392 18.6336
255 1 Ar 9.3168 21.7392 21.7392
256 1 Ar 12.4224 0 0
257 1 Ar 12.4224 0 3.1056
258 1 Ar 12.4224 0 6.2112
259 1 Ar 12.4224 0 9.3168
260 1 Ar 12.4224 0 12.4224
261 1 Ar 12.4224 0 15.528
262 1 Ar 12.4224 0 18.6336
263 1 Ar 12.4224 0 21.7392
264 1 Ar 12.4224 3.1056 0
265 1 Ar 12.4224 3.1056 3.1056
266 1 Ar 12.4224 3.1056 6.2112
267 1 Ar 12.4224 3.1056 9.3168
268 1 Ar 12.4224 3.1056 12.4224
269 1 Ar 12.4224 3.1056 15.528
270 1 Ar 12.4224 3.1056 18.6336
271 1 Ar 12.4224 3.1056 21.7392
272 1 Ar 12.4224 6.2112 0
273 1 Ar 12.4224 6.2112 3.1056
274 1 Ar 12.4224 6.2112 6.2112
275 1 Ar 12.4224 6.2112 9.3168
276 1 Ar 12.4224 6.2112 12.4224
277 1 Ar 12.4224 6.2112 15.528
278 1 Ar 12.4224 6.2112 18.6336
279 1 Ar 12.4224 6.2112 21.7392
280 1 Ar 12.4224 9.3168 0
281 1 Ar 12.4224 9.3168 3.1056
282 1 Ar 12.4224 9.3168 6.2112
283 1 Ar 12.4224 9.3168 9.3168
284 1 Ar 12.4224 9.3168 12.4224
285 1 Ar 12.4224 9.3168 15.528
286 1 Ar 12.4224 9.3168 18.6336
287 1 Ar 12.4224 9.3168 21.7392
288 1 Ar 12.4224 12.4224 0
289 1 Ar 12.4224 12.4224 3.1056
290 1 Ar 12.4224 12.4224 6.2112
291 1 Ar 12.4224 12.4224 9.3168
292 1 Ar 12.4224 12.4224 12.4224
293 1 Ar 12.4224 12.4224 15.528
294 1 Ar 12.4224 12.4224 18.6336
295 1 Ar 12.4224 12.4224 21.7392
296 1 Ar 12.4224 15.528 0
297 1 Ar 12.4224 15.528 3.1056
298 1 Ar 12.4224 15.528 6.2112
299 1 Ar 12.4224 15.528 9.3168
300 1 Ar 12.4224 15.528 12.4224
301 1 Ar 12.4224 15.528 15.528
302 1 Ar 12.4224 15.528 18.6336
303 1 Ar 12.4224 15.528 21.7392
304 1 Ar 12.4224 18.6336 0
305 1 Ar 12.4224 18.6336 3.1056
306 1 Ar 12.4224 18.6336 6.2112
307 1 Ar 12.4224 18.6336 9.3168
308 1 Ar 12.4224 18.6336 12.4224
309 1 Ar 12.4224 18.6336 15.528
310 1 Ar 12.4224 18.6336 18.6336
311 1 Ar 12.4224 18.6336 21.7392
312 1 Ar 12.4224 21.7392 0
313 1 Ar 12.4224 21.7392 3.1056
314 1 Ar 12.4224 21.7392 6.2112
315 1 Ar 12.4224 21.7392 9.3168
316 1 Ar 12.4224 21.7392 12.4224
317 1 Ar 12.4224 21.7392 15.528
318 1 Ar 12.4224 21.7392 18.6336
319 1 Ar 12.4224 21.7392 21.7392
320 1 Ar 15.528 0 0
321 1 Ar 15.528 0 3.1056
322 1 Ar 15.528 0 6.2112
323 1 Ar 15.528 0 9.3168
324 1 Ar 15.528 0 12.4224
325 1 Ar 15.528 0 15.528
326 1 Ar 15.528 0 18.6336
327 1 Ar 15.528 0 21.7392
328 1 Ar 15.528 3.1056 0
329 1 Ar 15.528 3.1056 3.1056
330 1 Ar 15.528 3.1056 6.2112
331 1 Ar 15.528 3.1056 9.3168
332 1 Ar 15.528 3.1056 12.4224
333 1 Ar 15.528 3.1056 15.528
334 1 Ar 15.528 3.1056 18.6336
335 1 Ar 15.528 3.1056 21.7392
336 1 Ar 15.528 6.2112 0
337 1 Ar 15.528 6.2112 3.1056
338 1 Ar 15.528 6.2112 6.2112
339 1 Ar 15.528 6.2112 9.3168
340 1 Ar 15.528 6.2112 12.4224
341 1 Ar 15.528 6.2112 15.528
342 1 Ar 15.528 6.2112 18.6336
343 1 Ar 15.528 6.2112 21.7392
344 1 Ar 15.528 9.3168 0
345 1 Ar 15.528 9.3168 3.1056
346 1 Ar 15.528 9.3168 6.2112
347 1 Ar 15.528 9.3168 9.3168
348 1 Ar 15.528 9.3168 12.4224
349 1 Ar 15.528 9.3168 15.528
350 1 Ar 15.528 9.3168 18.6336
351 1 Ar 15.528 9.3168 21.7392
352 1 Ar 15.528 12.4224 0
353 1 Ar 15.528 12.4224 3.1056
354 1 Ar 15.528 12.4224 6.2112
355 1 Ar 15.528 12.4224 9.3168
356 1 Ar 15.528 12.4224 12.4224
357 1 Ar 15.528 12.4224 15.528
358 1 Ar 15.528 12.4224 18.6336
359 1 Ar 15.528 12.4224 21.7392
360 1 Ar 15.528 15.528 0
361 1 Ar 15.528 15.528 3.1056
362 1 Ar 15.528 15.528 6.2112
363 1 Ar 15.528 15.528 9.3168
364 1 Ar 15.528 15.528 12.4224
365 1 Ar 15.528 15.528 15.528
366 1 Ar 15.528 15.528 18.6336
367 1 Ar 15.528 15.528 21.7392
368 1 Ar 15.528 18.6336 0
369 1 Ar 15.528 18.6336 3.1056
370 1 Ar 15.528 18.6336 6.2112
371 1 Ar 15.528 18.6336 9.3168
372 1 Ar 15.528 18.6336 12.4224
373 1 Ar 15.528 18.6336 15.528
374 1 Ar 15.528 18.6336 18.6336
375 1 Ar 15.528 18.6336 21.7392
376 1 Ar 15.528 21.7392 0
377 1 Ar 15.528 21.7392 3.1056
378 1 Ar 15.528 21.7392 6.2112
379 1 Ar 15.528 21.7392 9.3168
380 1 Ar 15.528 21.7392 12.4224
381 1 Ar 15.528 21.7392 15.528
382 1 Ar 15.528 21.7392 18.6336
383 1 Ar 15.528 21.7392 21.7392
384 1 Ar 18.6336 0 0
385 1 Ar 18.6336 0 3.1056
386 1 Ar 18.6336 0 6.2112
387 1 Ar 18.6336 0 9.3168
388 1 Ar 18.6336 0 12.4224
389 1 Ar 18.6336 0 15.528
390 1 Ar 18.6336 0 18.6336
391 1 Ar 18.6336 0 21.7392
392 1 Ar 18.6336 3.1056 0
393 1 Ar 18.6336 3.1056 3.1056
394 1 Ar 18.6336 3.1056 6.2112
395 1 Ar 18.6336 3.1056 9.3168
396 1 Ar 18.6336 3.1056 12.4224
397 1 Ar 18.6336 3.1056 15.528
398 1 Ar 18.6336 3.1056 18.6336
399 1 Ar 18.6336 3.1056 21.7392
400 1 Ar 18.6336 6.2112 0
401 1 Ar 18.6336 6.2112 3.1056
402 1 Ar 18.6336 6.2112 6.2112
403 1 Ar 18.6336 6.2112 9.3168
404 1 Ar 18.6336 6.2112 12.4224
405 1 Ar 18.6336 6.2112 15.528
406 1 Ar 18.6336 6.2112 18.6336
407 1 Ar 18.6336 6.2112 21.7392
408 1 Ar 18.6336 9.3168 0
409 1 Ar 18.6336 9.3168 3.1056
410 1 Ar 18.6336 9.3168 6.2112
411 1 Ar 18.6336 9.3168 9.3168
412 1 Ar 18.6336 9.3168 12.4224
413 1 Ar 18.6336 9.3168 15.528
414 1 Ar 18.6336 9.3168 18.6336
415 1 Ar 18.6336 9.3168 21.7392
416 1 Ar 18.6336 12.4224 0
417 1 Ar 18.6336 12.4224 3.1056
418 1 Ar 18.6336 12.4224 6.2112
419 1 Ar 18.6336 12.4224 9.3168
420 1 Ar 18.6336 12.4224 12.4224
421 1 Ar 18.6336 12.4224 15.528
422 1 Ar 18.6336 12.4224 18.6336
423 1 Ar 18.6336 12.4224 21.7392
424 1 Ar 18.6336 15.528 0
425 1 Ar 18.6336 15.528 3.1056
426 1 Ar 18.6336 15.528 6.2112
427 1 Ar 18.6336 15.528 9.3168
428 1 Ar 18.6336 15.528 12.4224
429 1 Ar 18.6336 15.528 15.528
430 1 Ar 18.6336 15.528 18.6336
431 1 Ar 18.6336 15.528 21.7392
432 1 Ar 18.6336 18.6336 0
433 1 Ar 18.6336 18.6336 3.1056
434 1 Ar 18.6336 18.6336 6.2112
435 1 Ar 18.6336 18.6336 9.3168
436 1 Ar 18.6336 18.6336 12.4224
437 1 Ar 18.6336 18.6336 15.528
438 1 Ar 18.6336 18.6336 18.6336
439 1 Ar 18.6336 18.6336 21.7392
440 1 Ar 18.6336 21.7392 0
441 1 Ar 18.6336 21.7392 3.1056
442 1 Ar 18.6336 21.7392 6.2112
443 1 Ar 18.6336 21.7392 9.3168
444 1 Ar 18.6336 21.7392 12.4224
445 1 Ar 18.6336 21.7392 15.528
446 1 Ar 18.6336 21.7392 18.6336
447 1 Ar 18.6336 21.7392 21.7392
448 1 Ar 21.7392 0 0
449 1 Ar 21.7392 0 3.1056
450 1 Ar 21.7392 0 6.2112
451 1 Ar 21.7392 0 9.3168
452 1 Ar 21.7392 0 12.4224
453 1 Ar 21.7392 0 15.528
454 1 Ar 21.7392 0 18.6336
455 1 Ar 21.7392 0 21.7392
456 1 Ar 21.7392 3.1056 0
457 1 Ar 21.7392 3.1056 3.1056
458 1 Ar 21.7392 3.1056 6.2112
459 1 Ar 21.7392 3.1056 9.3168
460 1 Ar 21.7392 3.1056 12.4224
461 1 Ar 21.7392 3.1056 15.528
462 1 Ar 21.7392 3.1056 18.6336
463 1 Ar 21.7392 3.1056 21.7392
464 1 Ar 21.7392 6.2112 0
465 1 Ar 21.7392 6.2112 3.1056
466 1 Ar 21.7392 6.2112 6.2112
467 1 Ar 21.7392 6.2112 9.3168
468 1 Ar 21.7392 6.2112 12.4224
469 1 Ar 21.7392 6.2112 15.528
470 1 Ar 21.7392 6.2112 18.6336
471 1 Ar 21.7392 6.2112 21.7392
472 1 Ar 21.7392 9.3168 0
473 1 Ar 21.7392 9.3168 3.1056
474 1 Ar 21.7392 9.3168 6.2112
475 1 Ar 21.7392 9.3168 9.3168
476 1 Ar 21.7392 9.3168 12.4224
477 1 Ar 21.7392 9.3168 15.528
478 1 Ar 21.7392 9.3168 18.6336
479 1 Ar 21.7392 9.3168 21.7392
480 1 Ar 21.7392 12.4224 0
481 1 Ar 21.7392 12.4224 3.1056
482 1 Ar 21.7392 12.4224 6.2112
483 1 Ar 21.7392 12.4224 9.3168
484 1 Ar 21.7392 12.4224 12.4224
485 1 Ar 21.7392 12.4224 15.528
486 1 Ar 21.7392 12.4224 18.6336
487 1 Ar 21.7392 12.4224 21.7392
488 1 Ar 21.7392 15.528 0
489 1 Ar 21.7392 15.528 3.1056
490 1 Ar 21.7392 15.528 6.2112
491 1 Ar 21.7392 15.528 9.3168
492 1 Ar 21.7392 15.528 12.4224
493 1 Ar 21.7392 15.528 15.528
494 1 Ar 21.7392 15.528 18.6336
495 1 Ar 21.7392 15.528 21.7392
496 1 Ar 21.7392 18.6336 0
497 1 Ar 21.7392 18.6336 3.1056
498 1 Ar 21.7392 18.6336 6.2112
499 1 Ar 21.7392 18.6336 9.3168
ITEM: TIMESTEP
19999
ITEM: NUMBER OF ATOMS
500
ITEM: BOX BOUNDS pp pp pp
0 27.9504
0 27.9504
0 27.9504
ITEM: ATOMS id type element xu yu zu
0 1 Ar 25.7564 0.142527 26.2745
1 1 Ar 27.1318 27.3794 2.24251
2 1 Ar 27.0991 27.3201 6.30459
3 1 Ar 27.1647 26.9961 9.37066
4 1 Ar 27.42 26.4142 13.0643
5 1 Ar 26.0988 0.0804848 15.4425
6 1 Ar 27.7421 26.939 19.1343
7 1 Ar 27.563 27.5042 22.5601
8 1 Ar 27.9178 2.53449 27.042
9 1 Ar 26.5614 3.32635 2.19103
10 1 Ar 26.6324 2.61726 5.74248
11 1 Ar 27.1296 2.98892 9.09713
12 1 Ar 0.100446 2.03443 12.4387
13 1 Ar 27.6508 3.12548 15.59
14 1 Ar 27.7761 2.41276 18.9891
15 1 Ar 26.1572 3.08177 22.0269
16 1 Ar 27.6138 5.85673 27.6693
17 1 Ar 27.7599 6.48785 2.6907
18 1 Ar 26.9859 5.83246 6.00047
19 1 Ar 0.150489 6.1939 9.18073
20 1 Ar 26.7007 5.93751 12.2488
21 1 Ar 27.7736 6.22932 15.5004
22 1 Ar 26.9756 6.02216 19.505
23 1 Ar 27.5178 6.19171 23.747
24 1 Ar 26.8523 9.31093 27.6377
25 1 Ar 26.8888 9.55561 2.88157
26 1 Ar 27.6318 9.15793 6.14278
27 1 Ar 27.4857 9.40534 9.50642
28 1 Ar 0.0614373 8.82242 12.6212
29 1 Ar 27.5656 9.35299 15.79
30 1 Ar 27.5131 9.12544 19.1539
31 1 Ar 26.7647 9.52992 22.6834
32 1 Ar 27.8193 12.9889 26.7225
33 1 Ar 27.5938 12.5318 2.10009
34 1 Ar 26.7728 12.3714 5.66693
35 1 Ar 27.6019 12.4468 9.17299
36 1 Ar 27.03 12.1047 12.5015
37 1 Ar 27.9088 12.5616 15.6423
38 1 Ar 26.7217 12.6372 18.7557
39 1 Ar 27.949 12.9868 22.183
40 1 Ar 25.224 15.6404 27.8223
41 1 Ar 27.522 15.6904 2.83172
42 1 Ar 27.4354 15.3822 6.39592
43 1 Ar 26.6616 15.4674 9.46975
44 1 Ar 27.1356 15.7849 12.7478
45 1 Ar 27.3951 16.0786 16.3146
46 1 Ar 26.9573 15.7858 20.2779
47 1 Ar 27.4412 15.7529 23.565
48 1 Ar 27.028 18.6293 26.3773
49 1 Ar 26.8432 18.9051 2.52576
50 1 Ar 27.1676 18.9975 5.70445
51 1 Ar 26.9553 18.823 9.34875
52 1 Ar 27.9208 19.3575 12.4033
53 1 Ar 27.4934 19.5626 15.8022
54 1 Ar 26.393 19.4898 18.8052
55 1 Ar 26.8727 18.7918 22.0922
56 1 Ar 26.3604 22.6188 26.9198
57 1 Ar 27.2342 22.1991 2.70046
58 1 Ar 26.9374 22.8727 6.00316
59 1 Ar 27.8588 22.1639 9.68293
60 1 Ar 26.372 22.3143 12.9635
61 1 Ar 27.0852 23.0352 16.5518
62 1 Ar 27.5939 22.9503 20.2288
63 1 Ar 27.012 21.7583 23.551
64 1 Ar 2.33359 27.3129 25.7135
65 1 Ar 3.05846 27.2577 1.51993
66 1 Ar 2.89661 27.282 6.08286
67 1 Ar 2.77853 26.6031 9.36899
68 1 Ar 3.17033 27.836 12.4713
69 1 Ar 1.9955 26.5104 15.32
70 1 Ar 3.13796 27.5241 18.5608
71 1 Ar 3.23878 27.191 22.1162
72 1 Ar 3.20037 2.03047 27.435
73 1 Ar 2.62618 2.72739 2.57233
74 1 Ar 1.96328 2.81542 5.94606
75 1 Ar 2.90994 2.65655 9.32972
76 1 Ar 3.51654 3.12637 13.0507
77 1 Ar 2.72461 2.1853 16.6206
78 1 Ar 2.92814 3.32126 19.9743
79 1 Ar 2.31615 2.76466 23.2223
80 1 Ar 3.12722 5.84321 27.1854
81 1 Ar 2.99745 5.75363 3.233
82 1 Ar 2.28376 6.29406 6.35119
83 1 Ar 3.27351 5.83856 9.57157
84 1 Ar 2.28254 6.29283 12.4783
85 1 Ar 3.21474 5.76005 15.7702
86 1 Ar 2.68899 6.73 18.9795
87 1 Ar 2.36315 6.16816 22.2919
88 1 Ar 3.00364 9.61777 26.527
89 1 Ar 2.86751 9.10939 2.30177
90 1 Ar 3.15968 9.45007 5.6045
91 1 Ar 2.84882 9.24474 8.97242
92 1 Ar 3.22535 9.61417 12.5775
93 1 Ar 3.0752 8.97339 15.882
94 1 Ar 3.23929 9.6669 19.0331
95 1 Ar 2.8037 9.47875 22.2442
96 1 Ar 3.32267 12.9563 27.8893
97 1 Ar 2.57015 12.377 3.12703
98 1 Ar 2.16355 12.5924 6.25546
99 1 Ar 2.87623 12.3221 9.893
100 1 Ar 2.3182 12.7667 13.1337
101 1 Ar 3.44631 12.103 16.0788
102 1 Ar 2.40061 12.7172 19.4668
103 1 Ar 3.09152 12.6303 23.1625
104 1 Ar 1.87063 15.9358 27.6285
105 1 Ar 2.87453 15.3604 2.55152
106 1 Ar 2.81639 15.6857 5.92662
107 1 Ar 2.79898 15.3806 9.25408
108 1 Ar 2.61113 15.9556 12.4876
109 1 Ar 2.94784 15.4712 15.6008
110 1 Ar 2.42881 15.9684 18.8406
111 1 Ar 2.79123 16.089 22.3222
112 1 Ar 2.77395 18.7801 25.6291
113 1 Ar 2.35455 18.6999 1.83273
114 1 Ar 2.47122 19.2285 5.37207
115 1 Ar 2.34474 18.6318 8.85686
116 1 Ar 3.21515 18.9899 12.1827
117 1 Ar 2.72943 18.6602 15.2922
118 1 Ar 1.79873 19.4531 18.4698
119 1 Ar 2.66529 19.4702 22.0946
120 1 Ar 2.57476 21.9001 27.4292
121 1 Ar 2.92918 21.7648 3.52814
122 1 Ar 2.41877 23.1956 6.52656
123 1 Ar 3.49036 21.7338 9.38429
124 1 Ar 2.3751 22.1464 12.5532
125 1 Ar 3.07457 22.9026 15.8373
126 1 Ar 3.10831 22.3894 19.5792
127 1 Ar 2.30066 23.027 23.6194
128 1 Ar 5.92028 26.5527 27.0798
129 1 Ar 5.97131 26.5184 2.91647
130 1 Ar 6.14922 27.1758 6.32807
131 1 Ar 6.31204 27.7529 9.9392
132 1 Ar 6.07516 25.6667 12.8698
133 1 Ar 5.92529 27.4852 16.1365
134 1 Ar 6.07909 25.9406 19.5236
135 1 Ar 6.21743 27.7654 23.5343
136 1 Ar 5.84418 4.31801 25.9357
137 1 Ar 5.96974 2.03034 2.8035
138 1 Ar 5.61508 2.64054 6.18104
139 1 Ar 6.24006 3.36492 9.23647
140 1 Ar 6.39972 2.03709 12.2874
141 1 Ar 5.86292 3.12913 15.6071
142 1 Ar 5.81939 2.23782 18.8307
143 1 Ar 6.23401 3.16152 22.5226
144 1 Ar 6.25047 7.15403 27.9471
145 1 Ar 6.22328 5.60604 3.01795
146 1 Ar 5.56955 6.18976 6.12204
147 1 Ar 6.30992 6.64183 9.34072
148 1 Ar 5.46067 5.66318 12.4309
149 1 Ar 6.30011 6.37674 15.8318
150 1 Ar 5.69476 5.53326 19.353
151 1 Ar 5.54033 6.30483 22.9362
152 1 Ar 6.12373 10.4375 27.2919
153 1 Ar 6.16075 9.00255 3.16939
154 1 Ar 6.17218 9.64379 6.26084
155 1 Ar 5.93364 9.8869 9.49575
156 1 Ar 6.59047 8.59466 12.2841
157 1 Ar 6.13976 9.63708 15.5447
158 1 Ar 6.29223 9.09298 18.7192
159 1 Ar 6.2429 9.45956 22.0802
160 1 Ar 6.76482 12.9375 25.1003
161 1 Ar 6.32371 12.5406 2.08669
162 1 Ar 5.40935 12.5458 5.826
163 1 Ar 6.21843 13.0342 8.97563
164 1 Ar 5.73639 11.8613 12.2803
165 1 Ar 6.46721 12.8304 15.395
166 1 Ar 5.88614 12.1818 18.4336
167 1 Ar 6.24589 12.7409 21.7758
168 1 Ar 5.87127 15.3718 27.6895
169 1 Ar 5.91409 16.2114 3.28908
170 1 Ar 5.95876 15.6855 6.23771
171 1 Ar 5.75483 16.6423 9.15827
172 1 Ar 5.97838 15.2203 12.3133
173 1 Ar 6.13474 16.1381 15.5108
174 1 Ar 6.01197 15.7518 18.7985
175 1 Ar 6.02981 16.0689 22.3191
176 1 Ar 5.52996 19.444 27.6697
177 1 Ar 5.9646 19.6351 2.94565
178 1 Ar 5.53918 18.7845 6.19088
179 1 Ar 6.40228 19.8077 9.30611
180 1 Ar 6.19617 18.4056 12.5381
181 1 Ar 5.99766 19.6667 16.0118
182 1 Ar 5.20886 18.9646 19.0384
183 1 Ar 6.34948 19.6042 22.545
184 1 Ar 6.04458 23.1397 27.4005
185 1 Ar 6.03929 22.8417 3.23161
186 1 Ar 5.62807 22.0734 6.79011
187 1 Ar 6.6531 23.7948 9.70101
188 1 Ar 5.83869 22.1438 12.4928
189 1 Ar 6.32933 23.0391 15.8033
190 1 Ar 6.29086 22.195 19.0328
191 1 Ar 6.03084 22.8067 22.9493
192 1 Ar 9.25173 26.8376 27.2737
193 1 Ar 8.98082 0.201878 2.67193
194 1 Ar 9.24863 26.9128 5.69215
195 1 Ar 9.47136 26.9897 8.80983
196 1 Ar 9.37355 27.8456 12.1955
197 1 Ar 9.12121 27.075 15.2623
198 1 Ar 9.26169 27.4097 18.9904
199 1 Ar 9.55297 27.8469 22.9958
200 1 Ar 9.32306 2.718 0.0500827
201 1 Ar 9.51211 3.30892 3.42092
202 1 Ar 9.19712 2.39347 6.39313
203 1 Ar 9.21871 2.54817 9.90171
204 1 Ar 9.77892 3.4896 12.9026
205 1 Ar 9.05825 3.14104 16.5697
206 1 Ar 9.19631 2.92696 19.7718
207 1 Ar 9.60983 3.28448 22.9728
208 1 Ar 8.96854 5.56228 26.2277
209 1 Ar 9.36138 6.07867 2.28976
210 1 Ar 8.81542 5.76653 6.28577
211 1 Ar 9.56037 5.93987 9.33593
212 1 Ar 9.21749 6.61609 12.4375
213 1 Ar 9.3234 6.09223 15.4968
214 1 Ar 8.8413 6.27887 18.8542
215 1 Ar 8.77319 6.23945 22.2523
216 1 Ar 9.20154 9.06892 26.8771
217 1 Ar 9.31267 9.33288 2.30086
218 1 Ar 9.03738 8.87317 5.52579
219 1 Ar 9.05664 9.15585 9.15757
220 1 Ar 9.56422 9.92828 12.1712
221 1 Ar 9.39113 9.16167 15.6433
222 1 Ar 9.43968 9.49825 19.2406
223 1 Ar 9.34292 9.37051 22.8192
224 1 Ar 9.03831 12.2433 27.7193
225 1 Ar 9.37056 12.3984 3.2563
226 1 Ar 8.91153 12.4456 6.44205
227 1 Ar 9.26303 12.5381 9.66705
228 1 Ar 9.33389 12.7012 13.1768
229 1 Ar 9.1559 12.1736 16.7079
230 1 Ar 9.05222 12.9322 19.8574
231 1 Ar 9.42984 12.9703 23.1053
232 1 Ar 9.44115 15.3065 27.2391
233 1 Ar 8.88799 15.5736 2.43018
234 1 Ar 9.01968 15.5731 6.27733
235 1 Ar 9.13194 15.6525 9.45905
236 1 Ar 9.04096 15.9303 12.5845
237 1 Ar 9.11553 15.1495 15.3874
238 1 Ar 9.43695 16.1324 18.6897
239 1 Ar 9.46499 16.0619 22.4626
240 1 Ar 8.55769 18.1932 26.391
241 1 Ar 9.4523 18.8884 2.40665
242 1 Ar 8.72387 19.0554 5.57908
243 1 Ar 9.60615 18.8278 8.79053
244 1 Ar 9.32582 18.9017 12.2793
245 1 Ar 9.26713 18.4582 15.6168
246 1 Ar 8.84271 19.3323 19.1818
247 1 Ar 9.71325 19.1714 22.9674
248 1 Ar 8.98607 21.1254 27.5991
249 1 Ar 9.6561 22.1548 2.57916
250 1 Ar 8.53237 23.1853 5.92578
251 1 Ar 9.90634 22.0268 9.33825
252 1 Ar 8.976 22.2943 12.2562
253 1 Ar 9.33959 21.7662 15.3419
254 1 Ar 9.43152 22.4907 18.759
255 1 Ar 9.58366 23.6014 22.5104
256 1 Ar 12.4574 27.3839 25.9633
257 1 Ar 11.9869 26.9447 1.81338
258 1 Ar 12.3736 26.668 5.58436
259 1 Ar 12.6488 27.2936 9.45326
260 1 Ar 12.4628 26.2298 12.7964
261 1 Ar 12.148 27.4531 15.9988
262 1 Ar 12.3996 27.5017 19.2756
263 1 Ar 12.4333 26.1082 22.3241
264 1 Ar 12.6518 2.62585 27.4253
265 1 Ar 12.5371 2.29502 2.72433
266 1 Ar 12.561 2.76128 5.90723
267 1 Ar 12.3943 2.91972 9.03801
268 1 Ar 12.7774 2.18982 12.3662
269 1 Ar 12.306 2.84693 15.5247
270 1 Ar 12.4839 2.79523 18.8568
271 1 Ar 12.734 1.83649 22.3765
272 1 Ar 12.208 6.09296 27.4024
273 1 Ar 12.8072 5.52723 2.59242
274 1 Ar 11.831 6.16068 5.70292
275 1 Ar 12.8555 6.20201 8.93331
276 1 Ar 12.4183 5.69863 12.4075
277 1 Ar 12.4937 5.93742 15.6182
278 1 Ar 12.2976 6.16965 18.6735
279 1 Ar 12.3299 5.39671 21.8659
280 1 Ar 12.7207 9.61249 27.1276
281 1 Ar 12.5104 8.50616 2.3339
282 1 Ar 12.5055 9.47712 5.6661
283 1 Ar 12.5674 9.34263 9.08006
284 1 Ar 12.8169 9.24363 12.246
285 1 Ar 12.6155 9.09402 15.3546
286 1 Ar 12.5418 9.3131 18.8344
287 1 Ar 12.4135 8.87717 22.1253
288 1 Ar 12.3596 13.127 27.8141
289 1 Ar 12.8951 12.0447 2.64946
290 1 Ar 12.3701 12.5797 5.98714
291 1 Ar 12.3193 12.5932 9.19926
292 1 Ar 12.5119 12.5001 12.2816
293 1 Ar 12.484 12.2748 15.6884
294 1 Ar 11.9312 12.3896 18.9567
295 1 Ar 12.3647 12.1198 22.4207
296 1 Ar 12.5558 16.1005 26.0558
297 1 Ar 12.3206 15.3072 2.31998
298 1 Ar 12.2318 15.7459 5.65962
299 1 Ar 12.3936 15.7016 9.20627
300 1 Ar 12.6121 15.8207 12.4977
301 1 Ar 12.145 15.7963 15.697
302 1 Ar 12.6153 15.669 19.0679
303 1 Ar 12.8662 15.5032 22.2393
304 1 Ar 11.6729 18.6965 27.8166
305 1 Ar 12.8955 18.8707 2.77869
306 1 Ar 12.287 19.1796 5.93501
307 1 Ar 12.8627 19.3976 8.99985
308 1 Ar 12.56 18.9417 12.1978
309 1 Ar 12.6501 19.1238 15.3706
310 1 Ar 11.9006 18.7248 18.7539
311 1 Ar 12.7537 18.6993 21.7868
312 1 Ar 12.3079 21.8199 26.7616
313 1 Ar 12.8127 22.1784 3.0145
314 1 Ar 12.054 22.7728 6.63691
315 1 Ar 12.858 24.0376 9.43705
316 1 Ar 12.3537 22.1628 12.6821
317 1 Ar 12.3044 22.6378 15.9617
318 1 Ar 13.0821 21.914 18.9504
319 1 Ar 12.6693 22.3217 22.9829
320 1 Ar 15.217 26.6727 27.4549
321 1 Ar 15.3399 27.8558 2.86435
322 1 Ar 15.8132 27.1569 6.08547
323 1 Ar 15.7948 27.7829 9.30115
324 1 Ar 15.7157 27.0928 12.6163
325 1 Ar 15.3966 27.5 15.6389
326 1 Ar 15.4368 27.8553 18.8545
327 1 Ar 16.3492 27.128 22.0514
328 1 Ar 16.0495 2.84502 26.6513
329 1 Ar 15.7325 3.08101 2.61307
330 1 Ar 15.7447 2.47737 6.03967
331 1 Ar 15.4822 3.15289 9.3106
332 1 Ar 16.3199 3.10705 12.2867
333 1 Ar 15.8107 2.7688 15.5931
334 1 Ar 15.6412 3.17336 18.9095
335 1 Ar 15.689 2.56959 22.6276
336 1 Ar 15.5489 6.51443 27.0661
337 1 Ar 15.8356 6.37556 3.29163
338 1 Ar 15.1464 5.80661 6.31809
339 1 Ar 16.0502 6.76871 9.1602
340 1 Ar 15.523 6.44134 12.1988
341 1 Ar 15.7313 5.96926 15.7539
342 1 Ar 15.6553 6.20896 19.0006
343 1 Ar 15.5116 6.3534 22.3005
344 1 Ar 15.9607 9.55878 27.8765
345 1 Ar 15.691 9.39068 3.26138
346 1 Ar 15.9047 9.31543 6.66048
347 1 Ar 15.9045 9.6948 9.73082
348 1 Ar 15.7377 9.93314 12.986
349 1 Ar 15.738 9.34372 16.1053
350 1 Ar 15.8027 9.30421 19.3783
351 1 Ar 15.8249 9.42993 23.5482
352 1 Ar 15.3959 12.3233 26.362
353 1 Ar 16.0802 12.3401 2.18319
354 1 Ar 15.8445 12.4196 5.61882
355 1 Ar 15.3791 12.6043 8.65987
356 1 Ar 15.7921 13.0946 11.949
357 1 Ar 15.7673 12.3205 15.0531
358 1 Ar 15.329 12.5682 18.6242
359 1 Ar 15.4936 12.5469 22.2624
360 1 Ar 15.425 15.636 0.0323
361 1 Ar 15.834 15.3478 3.4162
362 1 Ar 15.1083 15.4368 6.31517
363 1 Ar 15.908 15.7143 9.39294
364 1 Ar 15.9964 16.6787 12.6738
365 1 Ar 15.6935 15.7612 15.6948
366 1 Ar 15.7843 15.8457 19.6271
367 1 Ar 15.8798 16.0611 23.3244
368 1 Ar 15.4433 18.7663 26.6235
369 1 Ar 16.1507 18.2891 2.49686
370 1 Ar 15.5403 18.924 5.81449
371 1 Ar 15.8231 18.9139 9.20693
372 1 Ar 16.698 20.1817 12.2121
373 1 Ar 16.0751 19.1865 15.3703
374 1 Ar 15.0549 19.2442 19.0098
375 1 Ar 15.9501 19.2217 22.4754
376 1 Ar 15.8069 22.8212 26.2354
377 1 Ar 16.292 22.1682 2.07697
378 1 Ar 15.6147 22.7038 5.56336
379 1 Ar 16.6616 22.2651 9.16226
380 1 Ar 15.6416 23.2764 12.4033
381 1 Ar 16.1485 22.6875 16.3825
382 1 Ar 16.3431 22.6731 19.647
383 1 Ar 16.059 23.1361 22.7225
384 1 Ar 18.9348 27.51 26.7219
385 1 Ar 18.5874 27.8192 2.56472
386 1 Ar 18.84 0.116933 5.879
387 1 Ar 18.5949 26.7518 8.9877
388 1 Ar 19.0737 27.4709 12.188
389 1 Ar 18.7549 27.3583 15.5858
390 1 Ar 18.8801 27.5035 18.8564
391 1 Ar 19.6907 26.3013 21.9798
392 1 Ar 19.8706 2.73402 26.6977
393 1 Ar 18.8529 2.92985 3.00315
394 1 Ar 19.243 3.35825 6.24876
395 1 Ar 18.9152 2.35859 9.25183
396 1 Ar 19.6035 2.93361 12.5033
397 1 Ar 19.4379 2.52769 15.7232
398 1 Ar 18.693 3.22863 18.997
399 1 Ar 18.9863 2.43054 22.2492
400 1 Ar 19.8007 6.27318 27.533
401 1 Ar 19.6078 6.00199 3.02209
402 1 Ar 18.5687 6.30807 6.07083
403 1 Ar 19.417 5.84104 9.39853
404 1 Ar 18.9874 6.27543 12.7336
405 1 Ar 19.129 5.84207 15.8512
406 1 Ar 19.0217 6.37402 18.8519
407 1 Ar 18.9776 5.50411 22.4752
408 1 Ar 19.258 9.27913 26.031
409 1 Ar 18.8202 8.87599 2.0049
410 1 Ar 19.8178 9.17119 5.40954
411 1 Ar 19.1904 9.03641 8.90178
412 1 Ar 18.8597 9.32023 12.1671
413 1 Ar 19.7664 9.1382 15.4846
414 1 Ar 19.0105 9.46573 18.6233
415 1 Ar 19.8735 9.2088 22.5367
416 1 Ar 18.4551 12.2632 27.4079
417 1 Ar 19.2808 12.0816 2.87554
418 1 Ar 18.8714 12.3167 6.34092
419 1 Ar 18.7889 12.2028 9.51262
420 1 Ar 18.786 12.3854 12.5865
421 1 Ar 19.0296 12.6747 15.829
422 1 Ar 18.5048 12.4743 18.9374
423 1 Ar 18.9402 12.6639 21.9765
424 1 Ar 18.9916 15.7045 27.6223
425 1 Ar 19.4934 15.5033 2.96412
426 1 Ar 18.5382 15.3853 5.93374
427 1 Ar 19.0336 15.5177 9.10407
428 1 Ar 19.4451 15.9469 12.5064
429 1 Ar 18.8374 15.7302 15.8855
430 1 Ar 18.8708 15.7606 19.1257
431 1 Ar 19.3431 15.8722 22.3565
432 1 Ar 18.624 19.2884 26.2763
433 1 Ar 19.2242 19.1441 2.4177
434 1 Ar 19.2911 18.5154 6.17822
435 1 Ar 19.1325 19.1341 9.37382
436 1 Ar 20.1592 19.3656 12.5416
437 1 Ar 19.3473 18.9942 15.843
438 1 Ar 18.5746 19.0933 19.4249
439 1 Ar 20.0924 19.2124 22.8877
440 1 Ar 19.1167 23.2176 27.5082
441 1 Ar 19.6585 22.7067 2.8489
442 1 Ar 19.0812 22.2081 6.0995
443 1 Ar 20.5269 22.1807 9.28789
444 1 Ar 19.4729 23.7624 12.1556
445 1 Ar 19.6241 22.5602 15.4084
446 1 Ar 19.6017 22.3508 19.2415
447 1 Ar 19.7543 22.5381 22.7127
448 1 Ar 22.5064 27.6904 27.7228
449 1 Ar 22.3162 25.9357 3.30297
450 1 Ar 21.5724 26.7117 6.97253
451 1 Ar 22.7397 27.5603 9.95996
452 1 Ar 22.1581 26.372 12.8524
453 1 Ar 22.6312 27.5668 16.6207
454 1 Ar 22.2075 25.8884 19.7326
455 1 Ar 23.3025 26.8054 23.3583
456 1 Ar 23.7119 3.11314 27.0761
457 1 Ar 22.555 1.6305 2.54481
458 1 Ar 22.2145 2.78287 5.68208
459 1 Ar 22.5476 3.21376 9.17258
460 1 Ar 22.8168 2.41625 12.6893
461 1 Ar 22.6682 3.2919 15.9532
462 1 Ar 22.2404 2.8832 19.3719
463 1 Ar 22.6095 2.00293 22.4127
464 1 Ar 24.2677 6.56801 26.8975
465 1 Ar 23.3431 5.28877 2.66019
466 1 Ar 22.0073 6.18861 5.76256
467 1 Ar 22.9321 7.04537 9.00982
468 1 Ar 22.2444 5.51573 12.0494