ITEM: TIMESTEP
-1
ITEM: NUMBER OF ATOMS
500
ITEM: BOX BOUNDS pp pp pp
0 46.1451
0 46.1451
0 46.1451
ITEM: ATOMS id type element xu yu zu
0 1 Ar 0 0 0
1 1 Ar 0 0 5.12723
2 1 Ar 0 0 10.2545
3 1 Ar 0 0 15.3817
4 1 Ar 0 0 20.5089
5 1 Ar 0 0 25.6362
6 1 Ar 0 0 30.7634
7 1 Ar 0 0 35.8906
8 1 Ar 0 5.12723 0
9 1 Ar 0 5.12723 5.12723
10 1 Ar 0 5.12723 10.2545
11 1 Ar 0 5.12723 15.3817
12 1 Ar 0 5.12723 20.5089
13 1 Ar 0 5.12723 25.6362
14 1 Ar 0 5.12723 30.7634
15 1 Ar 0 5.12723 35.8906
16 1 Ar 0 10.2545 0
17 1 Ar 0 10.2545 5.12723
18 1 Ar 0 10.2545 10.2545
19 1 Ar 0 10.2545 15.3817
20 1 Ar 0 10.2545 20.5089
21 1 Ar 0 10.2545 25.6362
22 1 Ar 0 10.2545 30.7634
23 1 Ar 0 10.2545 35.8906
24 1 Ar 0 15.3817 0
25 1 Ar 0 15.3817 5.12723
26 1 Ar 0 15.3817 10.2545
27 1 Ar 0 15.3817 15.3817
28 1 Ar 0 15.3817 20.5089
29 1 Ar 0 15.3817 25.6362
30 1 Ar 0 15.3817 30.7634
31 1 Ar 0 15.3817 35.8906
32 1 Ar 0 20.5089 0
33 1 Ar 0 20.5089 5.12723
34 1 Ar 0 20.5089 10.2545
35 1 Ar 0 20.5089 15.3817
36 1 Ar 0 20.5089 20.5089
37 1 Ar 0 20.5089 25.6362
38 1 Ar 0 20.5089 30.7634
39 1 Ar 0 20.5089 35.8906
40 1 Ar 0 25.6362 0
41 1 Ar 0 25.6362 5.12723
42 1 Ar 0 25.6362 10.2545
43 1 Ar 0 25.6362 15.3817
44 1 Ar 0 25.6362 20.5089
45 1 Ar 0 25.6362 25.6362
46 1 Ar 0 25.6362 30.7634
47 1 Ar 0 25.6362 35.8906
48 1 Ar 0 30.7634 0
49 1 Ar 0 30.7634 5.12723
50 1 Ar 0 30.7634 10.2545
51 1 Ar 0 30.7634 15.3817
52 1 Ar 0 30.7634 20.5089
53 1 Ar 0 30.7634 25.6362
54 1 Ar 0 30.7634 30.7634
55 1 Ar 0 30.7634 35.8906
56 1 Ar 0 35.8906 0
57 1 Ar 0 35.8906 5.12723
58 1 Ar 0 35.8906 10.2545
59 1 Ar 0 35.8906 15.3817
60 1 Ar 0 35.8906 20.5089
61 1 Ar 0 35.8906 25.6362
62 1 Ar 0 35.8906 30.7634
63 1 Ar 0 35.8906 35.8906
64 1 Ar 5.12723 0 0
65 1 Ar 5.12723 0 5.12723
66 1 Ar 5.12723 0 10.2545
67 1 Ar 5.12723 0 15.3817
68 1 Ar 5.12723 0 20.5089
69 1 Ar 5.12723 0 25.6362
70 1 Ar 5.12723 0 30.7634
71 1 Ar 5.12723 0 35.8906
72 1 Ar 5.12723 5.12723 0
73 1 Ar 5.12723 5.12723 5.12723
74 1 Ar 5.12723 5.12723 10.2545
75 1 Ar 5.12723 5.12723 15.3817
76 1 Ar 5.12723 5.12723 20.5089
77 1 Ar 5.12723 5.12723 25.6362
78 1 Ar 5.12723 5.12723 30.7634
79 1 Ar 5.12723 5.12723 35.8906
80 1 Ar 5.12723 10.2545 0
81 1 Ar 5.12723 10.2545 5.12723
82 1 Ar 5.12723 10.2545 10.2545
83 1 Ar 5.12723 10.2545 15.3817
84 1 Ar 5.12723 10.2545 20.5089
85 1 Ar 5.12723 10.2545 25.6362
86 1 Ar 5.12723 10.2545 30.7634
87 1 Ar 5.12723 10.2545 35.8906
88 1 Ar 5.12723 15.3817 0
89 1 Ar 5.12723 15.3817 5.12723
90 1 Ar 5.12723 15.3817 10.2545
91 1 Ar 5.12723 15.3817 15.3817
92 1 Ar 5.12723 15.3817 20.5089
93 1 Ar 5.12723 15.3817 25.6362
94 1 Ar 5.12723 15.3817 30.7634
95 1 Ar 5.12723 15.3817 35.8906
96 1 Ar 5.12723 20.5089 0
97 1 Ar 5.12723 20.5089 5.12723
98 1 Ar 5.12723 20.5089 10.2545
99 1 Ar 5.12723 20.5089 15.3817
100 1 Ar 5.12723 20.5089 20.5089
101 1 Ar 5.12723 20.5089 25.6362
102 1 Ar 5.12723 20.5089 30.7634
103 1 Ar 5.12723 20.5089 35.8906
104 1 Ar 5.12723 25.6362 0
105 1 Ar 5.12723 25.6362 5.12723
106 1 Ar 5.12723 25.6362 10.2545
107 1 Ar 5.12723 25.6362 15.3817
108 1 Ar 5.12723 25.6362 20.5089
109 1 Ar 5.12723 25.6362 25.6362
110 1 Ar 5.12723 25.6362 30.7634
111 1 Ar 5.12723 25.6362 35.8906
112 1 Ar 5.12723 30.7634 0
113 1 Ar 5.12723 30.7634 5.12723
114 1 Ar 5.12723 30.7634 10.2545
115 1 Ar 5.12723 30.7634 15.3817
116 1 Ar 5.12723 30.7634 20.5089
117 1 Ar 5.12723 30.7634 25.6362
118 1 Ar 5.12723 30.7634 30.7634
119 1 Ar 5.12723 30.7634 35.8906
120 1 Ar 5.12723 35.8906 0
121 1 Ar 5.12723 35.8906 5.12723
122 1 Ar 5.12723 35.8906 10.2545
123 1 Ar 5.12723 35.8906 15.3817
124 1 Ar 5.12723 35.8906 20.5089
125 1 Ar 5.12723 35.8906 25.6362
126 1 Ar 5.12723 35.8906 30.7634
127 1 Ar 5.12723 35.8906 35.8906
128 1 Ar 10.2545 0 0
129 1 Ar 10.2545 0 5.12723
130 1 Ar 10.2545 0 10.2545
131 1 Ar 10.2545 0 15.3817
132 1 Ar 10.2545 0 20.5089
133 1 Ar 10.2545 0 25.6362
134 1 Ar 10.2545 0 30.7634
135 1 Ar 10.2545 0 35.8906
136 1 Ar 10.2545 5.12723 0
137 1 Ar 10.2545 5.12723 5.12723
138 1 Ar 10.2545 5.12723 10.2545
139 1 Ar 10.2545 5.12723 15.3817
140 1 Ar 10.2545 5.12723 20.5089
141 1 Ar 10.2545 5.12723 25.6362
142 1 Ar 10.2545 5.12723 30.7634
143 1 Ar 10.2545 5.12723 35.8906
144 1 Ar 10.2545 10.2545 0
145 1 Ar 10.2545 10.2545 5.12723
146 1 Ar 10.2545 10.2545 10.2545
147 1 Ar 10.2545 10.2545 15.3817
148 1 Ar 10.2545 10.2545 20.5089
149 1 Ar 10.2545 10.2545 25.6362
150 1 Ar 10.2545 10.2545 30.7634
151 1 Ar 10.2545 10.2545 35.8906
152 1 Ar 10.2545 15.3817 0
153 1 Ar 10.2545 15.3817 5.12723
154 1 Ar 10.2545 15.3817 10.2545
155 1 Ar 10.2545 15.3817 15.3817
156 1 Ar 10.2545 15.3817 20.5089
157 1 Ar 10.2545 15.3817 25.6362
158 1 Ar 10.2545 15.3817 30.7634
159 1 Ar 10.2545 15.3817 35.8906
160 1 Ar 10.2545 20.5089 0
161 1 Ar 10.2545 20.5089 5.12723
162 1 Ar 10.2545 20.5089 10.2545
163 1 Ar 10.2545 20.5089 15.3817
164 1 Ar 10.2545 20.5089 20.5089
165 1 Ar 10.2545 20.5089 25.6362
166 1 Ar 10.2545 20.5089 30.7634
167 1 Ar 10.2545 20.5089 35.8906
168 1 Ar 10.2545 25.6362 0
169 1 Ar 10.2545 25.6362 5.12723
170 1 Ar 10.2545 25.6362 10.2545
171 1 Ar 10.2545 25.6362 15.3817
172 1 Ar 10.2545 25.6362 20.5089
173 1 Ar 10.2545 25.6362 25.6362
174 1 Ar 10.2545 25.6362 30.7634
175 1 Ar 10.2545 25.6362 35.8906
176 1 Ar 10.2545 30.7634 0
177 1 Ar 10.2545 30.7634 5.12723
178 1 Ar 10.2545 30.7634 10.2545
179 1 Ar 10.2545 30.7634 15.3817
180 1 Ar 10.2545 30.7634 20.5089
181 1 Ar 10.2545 30.7634 25.6362
182 1 Ar 10.2545 30.7634 30.7634
183 1 Ar 10.2545 30.7634 35.8906
184 1 Ar 10.2545 35.8906 0
185 1 Ar 10.2545 35.8906 5.12723
186 1 Ar 10.2545 35.8906 10.2545
187 1 Ar 10.2545 35.8906 15.3817
188 1 Ar 10.2545 35.8906 20.5089
189 1 Ar 10.2545 35.8906 25.6362
190 1 Ar 10.2545 35.8906 30.7634
191 1 Ar 10.2545 35.8906 35.8906
192 1 Ar 15.3817 0 0
193 1 Ar 15.3817 0 5.12723
194 1 Ar 15.3817 0 10.2545
195 1 Ar 15.3817 0 15.3817
196 1 Ar 15.3817 0 20.5089
197 1 Ar 15.3817 0 25.6362
198 1 Ar 15.3817 0 30.7634
199 1 Ar 15.3817 0 35.8906
200 1 Ar 15.3817 5.12723 0
201 1 Ar 15.3817 5.12723 5.12723
202 1 Ar 15.3817 5.12723 10.2545
203 1 Ar 15.3817 5.12723 15.3817
204 1 Ar 15.3817 5.12723 20.5089
205 1 Ar 15.3817 5.12723 25.6362
206 1 Ar 15.3817 5.12723 30.7634
207 1 Ar 15.3817 5.12723 35.8906
208 1 Ar 15.3817 10.2545 0
209 1 Ar 15.3817 10.2545 5.12723
210 1 Ar 15.3817 10.2545 10.2545
211 1 Ar 15.3817 10.2545 15.3817
212 1 Ar 15.3817 10.2545 20.5089
213 1 Ar 15.3817 10.2545 25.6362
214 1 Ar 15.3817 10.2545 30.7634
215 1 Ar 15.3817 10.2545 35.8906
216 1 Ar 15.3817 15.3817 0
217 1 Ar 15.3817 15.3817 5.12723
218 1 Ar 15.3817 15.3817 10.2545
219 1 Ar 15.3817 15.3817 15.3817
220 1 Ar 15.3817 15.3817 20.5089
221 1 Ar 15.3817 15.3817 25.6362
222 1 Ar 15.3817 15.3817 30.7634
223 1 Ar 15.3817 15.3817 35.8906
224 1 Ar 15.3817 20.5089 0
225 1 Ar 15.3817 20.5089 5.12723
226 1 Ar 15.3817 20.5089 10.2545
227 1 Ar 15.3817 20.5089 15.3817
228 1 Ar 15.3817 20.5089 20.5089
229 1 Ar 15.3817 20.5089 25.6362
230 1 Ar 15.3817 20.5089 30.7634
231 1 Ar 15.3817 20.5089 35.8906
232 1 Ar 15.3817 25.6362 0
233 1 Ar 15.3817 25.6362 5.12723
234 1 Ar 15.3817 25.6362 10.2545
235 1 Ar 15.3817 25.6362 15.3817
236 1 Ar 15.3817 25.6362 20.5089
237 1 Ar 15.3817 25.6362 25.6362
238 1 Ar 15.3817 25.6362 30.7634
239 1 Ar 15.3817 25.6362 35.8906
240 1 Ar 15.3817 30.7634 0
241 1 Ar 15.3817 30.7634 5.12723
242 1 Ar 15.3817 30.7634 10.2545
243 1 Ar 15.3817 30.7634 15.3817
244 1 Ar 15.3817 30.7634 20.5089
245 1 Ar 15.3817 30.7634 25.6362
246 1 Ar 15.3817 30.7634 30.7634
247 1 Ar 15.3817 30.7634 35.8906
248 1 Ar 15.3817 35.8906 0
249 1 Ar 15.3817 35.8906 5.12723
250 1 Ar 15.3817 35.8906 10.2545
251 1 Ar 15.3817 35.8906 15.3817
252 1 Ar 15.3817 35.8906 20.5089
253 1 Ar 15.3817 35.8906 25.6362
254 1 Ar 15.3817 35.8906 30.7634
255 1 Ar 15.3817 35.8906 35.8906
256 1 Ar 20.5089 0 0
257 1 Ar 20.5089 0 5.12723
258 1 Ar 20.5089 0 10.2545
259 1 Ar 20.5089 0 15.3817
260 1 Ar 20.5089 0 20.5089
261 1 Ar 20.5089 0 25.6362
262 1 Ar 20.5089 0 30.7634
263 1 Ar 20.5089 0 35.8906
264 1 Ar 20.5089 5.12723 0
265 1 Ar 20.5089 5.12723 5.12723
266 1 Ar 20.5089 5.12723 10.2545
267 1 Ar 20.5089 5.12723 15.3817
268 1 Ar 20.5089 5.12723 20.5089
269 1 Ar 20.5089 5.12723 25.6362
270 1 Ar 20.5089 5.12723 30.7634
271 1 Ar 20.5089 5.12723 35.8906
272 1 Ar 20.5089 10.2545 0
273 1 Ar 20.5089 10.2545 5.12723
274 1 Ar 20.5089 10.2545 10.2545
275 1 Ar 20.5089 10.2545 15.3817
276 1 Ar 20.5089 10.2545 20.5089
277 1 Ar 20.5089 10.2545 25.6362
278 1 Ar 20.5089 10.2545 30.7634
279 1 Ar 20.5089 10.2545 35.8906
280 1 Ar 20.5089 15.3817 0
281 1 Ar 20.5089 15.3817 5.12723
282 1 Ar 20.5089 15.3817 10.2545
283 1 Ar 20.5089 15.3817 15.3817
284 1 Ar 20.5089 15.3817 20.5089
285 1 Ar 20.5089 15.3817 25.6362
286 1 Ar 20.5089 15.3817 30.7634
287 1 Ar 20.5089 15.3817 35.8906
288 1 Ar 20.5089 20.5089 0
289 1 Ar 20.5089 20.5089 5.12723
290 1 Ar 20.5089 20.5089 10.2545
291 1 Ar 20.5089 20.5089 15.3817
292 1 Ar 20.5089 20.5089 20.5089
293 1 Ar 20.5089 20.5089 25.6362
294 1 Ar 20.5089 20.5089 30.7634
295 1 Ar 20.5089 20.5089 35.8906
296 1 Ar 20.5089 25.6362 0
297 1 Ar 20.5089 25.6362 5.12723
298 1 Ar 20.5089 25.6362 10.2545
299 1 Ar 20.5089 25.6362 15.3817
300 1 Ar 20.5089 25.6362 20.5089
301 1 Ar 20.5089 25.6362 25.6362
302 1 Ar 20.5089 25.6362 30.7634
303 1 Ar 20.5089 25.6362 35.8906
304 1 Ar 20.5089 30.7634 0
305 1 Ar 20.5089 30.7634 5.12723
306 1 Ar 20.5089 30.7634 10.2545
307 1 Ar 20.5089 30.7634 15.3817
308 1 Ar 20.5089 30.7634 20.5089
309 1 Ar 20.5089 30.7634 25.6362
310 1 Ar 20.5089 30.7634 30.7634
311 1 Ar 20.5089 30.7634 35.8906
312 1 Ar 20.5089 35.8906 0
313 1 Ar 20.5089 35.8906 5.12723
314 1 Ar 20.5089 35.8906 10.2545
315 1 Ar 20.5089 35.8906 15.3817
316 1 Ar 20.5089 35.8906 20.5089
317 1 Ar 20.5089 35.8906 25.6362
318 1 Ar 20.5089 35.8906 30.7634
319 1 Ar 20.5089 35.8906 35.8906
320 1 Ar 25.6362 0 0
321 1 Ar 25.6362 0 5.12723
322 1 Ar 25.6362 0 10.2545
323 1 Ar 25.6362 0 15.3817
324 1 Ar 25.6362 0 20.5089
325 1 Ar 25.6362 0 25.6362
326 1 Ar 25.6362 0 30.7634
327 1 Ar 25.6362 0 35.8906
328 1 Ar 25.6362 5.12723 0
329 1 Ar 25.6362 5.12723 5.12723
330 1 Ar 25.6362 5.12723 10.2545
331 1 Ar 25.6362 5.12723 15.3817
332 1 Ar 25.6362 5.12723 20.5089
333 1 Ar 25.6362 5.12723 25.6362
334 1 Ar 25.6362 5.12723 30.7634
335 1 Ar 25.6362 5.12723 35.8906
336 1 Ar 25.6362 10.2545 0
337 1 Ar 25.6362 10.2545 5.12723
338 1 Ar 25.6362 10.2545 10.2545
339 1 Ar 25.6362 10.2545 15.3817
340 1 Ar 25.6362 10.2545 20.5089
341 1 Ar 25.6362 10.2545 25.6362
342 1 Ar 25.6362 10.2545 30.7634
343 1 Ar 25.6362 10.2545 35.8906
344 1 Ar 25.6362 15.3817 0
345 1 Ar 25.6362 15.3817 5.12723
346 1 Ar 25.6362 15.3817 10.2545
347 1 Ar 25.6362 15.3817 15.3817
348 1 Ar 25.6362 15.3817 20.5089
349 1 Ar 25.6362 15.3817 25.6362
350 1 Ar 25.6362 15.3817 30.7634
351 1 Ar 25.6362 15.3817 35.8906
352 1 Ar 25.6362 20.5089 0
353 1 Ar 25.6362 20.5089 5.12723
354 1 Ar 25.6362 20.5089 10.2545
355 1 Ar 25.6362 20.5089 15.3817
356 1 Ar 25.6362 20.5089 20.5089
357 1 Ar 25.6362 20.5089 25.6362
358 1 Ar 25.6362 20.5089 30.7634
359 1 Ar 25.6362 20.5089 35.8906
360 1 Ar 25.6362 25.6362 0
361 1 Ar 25.6362 25.6362 5.12723
362 1 Ar 25.6362 25.6362 10.2545
363 1 Ar 25.6362 25.6362 15.3817
364 1 Ar 25.6362 25.6362 20.5089
365 1 Ar 25.6362 25.6362 25.6362
366 1 Ar 25.6362 25.6362 30.7634
367 1 Ar 25.6362 25.6362 35.8906
368 1 Ar 25.6362 30.7634 0
369 1 Ar 25.6362 30.7634 5.12723
370 1 Ar 25.6362 30.7634 10.2545
371 1 Ar 25.6362 30.7634 15.3817
372 1 Ar 25.6362 30.7634 20.5089
373 1 Ar 25.6362 30.7634 25.6362
374 1 Ar 25.6362 30.7634 30.7634
375 1 Ar 25.6362 30.7634 35.8906
376 1 Ar 25.6362 35.8906 0
377 1 Ar 25.6362 35.8906 5.12723
378 1 Ar 25.6362 35.8906 10.2545
379 1 Ar 25.6362 35.8906 15.3817
380 1 Ar 25.6362 35.8906 20.5089
381 1 Ar 25.6362 35.8906 25.6362
382 1 Ar 25.6362 35.8906 30.7634
383 1 Ar 25.6362 35.8906 35.8906
384 1 Ar 30.7634 0 0
385 1 Ar 30.7634 0 5.12723
386 1 Ar 30.7634 0 10.2545
387 1 Ar 30.7634 0 15.3817
388 1 Ar 30.7634 0 20.5089
389 1 Ar 30.7634 0 25.6362
390 1 Ar 30.7634 0 30.7634
391 1 Ar 30.7634 0 35.8906
392 1 Ar 30.7634 5.12723 0
393 1 Ar 30.7634 5.12723 5.12723
394 1 Ar 30.7634 5.12723 10.2545
395 1 Ar 30.7634 5.12723 15.3817
396 1 Ar 30.7634 5.12723 20.5089
397 1 Ar 30.7634 5.12723 25.6362
398 1 Ar 30.7634 5.12723 30.7634
399 1 Ar 30.7634 5.12723 35.8906
400 1 Ar 30.7634 10.2545 0
401 1 Ar 30.7634 10.2545 5.12723
402 1 Ar 30.7634 10.2545 10.2545
403 1 Ar 30.7634 10.2545 15.3817
404 1 Ar 30.7634 10.2545 20.5089
405 1 Ar 30.7634 10.2545 25.6362
406 1 Ar 30.7634 10.2545 30.7634
407 1 Ar 30.7634 10.2545 35.8906
408 1 Ar 30.7634 15.3817 0
409 1 Ar 30.7634 15.3817 5.12723
410 1 Ar 30.7634 15.3817 10.2545
411 1 Ar 30.7634 15.3817 15.3817
412 1 Ar 30.7634 15.3817 20.5089
413 1 Ar 30.7634 15.3817 25.6362
414 1 Ar 30.7634 15.3817 30.7634
415 1 Ar 30.7634 15.3817 35.8906
416 1 Ar 30.7634 20.5089 0
417 1 Ar 30.7634 20.5089 5.12723
418 1 Ar 30.7634 20.5089 10.2545
419 1 Ar 30.7634 20.5089 15.3817
420 1 Ar 30.7634 20.5089 20.5089
421 1 Ar 30.7634 20.5089 25.6362
422 1 Ar 30.7634 20.5089 30.7634
423 1 Ar 30.7634 20.5089 35.8906
424 1 Ar 30.7634 25.6362 0
425 1 Ar 30.7634 25.6362 5.12723
426 1 Ar 30.7634 25.6362 10.2545
427 1 Ar 30.7634 25.6362 15.3817
428 1 Ar 30.7634 25.6362 20.5089
429 1 Ar 30.7634 25.6362 25.6362
430 1 Ar 30.7634 25.6362 30.7634
431 1 Ar 30.7634 25.6362 35.8906
432 1 Ar 30.7634 30.7634 0
433 1 Ar 30.7634 30.7634 5.12723
434 1 Ar 30.7634 30.7634 10.2545
435 1 Ar 30.7634 30.7634 15.3817
436 1 Ar 30.7634 30.7634 20.5089
437 1 Ar 30.7634 30.7634 25.6362
438 1 Ar 30.7634 30.7634 30.7634
439 1 Ar 30.7634 30.7634 35.8906
440 1 Ar 30.7634 35.8906 0
441 1 Ar 30.7634 35.8906 5.12723
442 1 Ar 30.7634 35.8906 10.2545
443 1 Ar 30.7634 35.8906 15.3817
444 1 Ar 30.7634 35.8906 20.5089
445 1 Ar 30.7634 35.8906 25.6362
446 1 Ar 30.7634 35.8906 30.7634
447 1 Ar 30.7634 35.8906 35.8906
448 1 Ar 35.8906 0 0
449 1 Ar 35.8906 0 5.12723
450 1 Ar 35.8906 0 10.2545
451 1 Ar 35.8906 0 15.3817
452 1 Ar 35.8906 0 20.5089
453 1 Ar 35.8906 0 25.6362
454 1 Ar 35.8906 0 30.7634
455 1 Ar 35.8906 0 35.8906
456 1 Ar 35.8906 5.12723 0
457 1 Ar 35.8906 5.12723 5.12723
458 1 Ar 35.8906 5.12723 10.2545
459 1 Ar 35.8906 5.12723 15.3817
460 1 Ar 35.8906 5.12723 20.5089
461 1 Ar 35.8906 5.12723 25.6362
462 1 Ar 35.8906 5.12723 30.7634
463 1 Ar 35.8906 5.12723 35.8906
464 1 Ar 35.8906 10.2545 0
465 1 Ar 35.8906 10.2545 5.12723
466 1 Ar 35.8906 10.2545 10.2545
467 1 Ar 35.8906 10.2545 15.3817
468 1 Ar 35.8906 10.2545 20.5089
469 1 Ar 35.8906 10.2545 25.6362
470 1 Ar 35.8906 10.2545 30.7634
471 1 Ar 35.8906 10.2545 35.8906
472 1 Ar 35.8906 15.3817 0
473 1 Ar 35.8906 15.3817 5.12723
474 1 Ar 35.8906 15.3817 10.2545
475 1 Ar 35.8906 15.3817 15.3817
476 1 Ar 35.8906 15.3817 20.5089
477 1 Ar 35.8906 15.3817 25.6362
478 1 Ar 35.8906 15.3817 30.7634
479 1 Ar 35.8906 15.3817 35.8906
480 1 Ar 35.8906 20.5089 0
481 1 Ar 35.8906 20.5089 5.12723
482 1 Ar 35.8906 20.5089 10.2545
483 1 Ar 35.8906 20.5089 15.3817
484 1 Ar 35.8906 20.5089 20.5089
485 1 Ar 35.8906 20.5089 25.6362
486 1 Ar 35.8906 20.5089 30.7634
487 1 Ar 35.8906 20.5089 35.8906
488 1 Ar 35.8906 25.6362 0
489 1 Ar 35.8906 25.6362 5.12723
490 1 Ar 35.8906 25.6362 10.2545
491 1 Ar 35.8906 25.6362 15.3817
492 1 Ar 35.8906 25.6362 20.5089
493 1 Ar 35.8906 25.6362 25.6362
494 1 Ar 35.8906 25.6362 30.7634
495 1 Ar 35.8906 25.6362 35.8906
496 1 Ar 35.8906 30.7634 0
497 1 Ar 35.8906 30.7634 5.12723
498 1 Ar 35.8906 30.7634 10.2545
499 1 Ar 35.8906 30.7634 15.3817
ITEM: TIMESTEP
19999
ITEM: NUMBER OF ATOMS
500
ITEM: BOX BOUNDS pp pp pp
0 46.1451
0 46.1451
0 46.1451
ITEM: ATOMS id type element xu yu zu
0 1 Ar 17.4031 4.20495 34.684
1 1 Ar 4.1666 19.9251 8.19028
2 1 Ar 19.9607 4.30241 2.59183
3 1 Ar 32.6822 45.9379 15.8767
4 1 Ar 14.7826 40.0146 25.9361
5 1 Ar 20.885 42.9526 38.5958
6 1 Ar 43.1463 0.514154 23.483
7 1 Ar 16.7251 6.00995 4.93116
8 1 Ar 18.6261 29.1601 30.1407
9 1 Ar 41.9678 5.24372 2.89312
10 1 Ar 9.84619 13.2992 5.12157
11 1 Ar 44.4518 7.42036 24.4022
12 1 Ar 2.75802 9.54059 9.59616
13 1 Ar 44.4316 37.3698 13.7689
14 1 Ar 29.7822 44.0516 24.1012
15 1 Ar 26.0009 13.8626 23.5377
16 1 Ar 15.6484 2.46533 8.2817
17 1 Ar 4.85494 46.0388 5.3702
18 1 Ar 24.3571 19.8029 17.035
19 1 Ar 28.9046 18.8459 28.3059
20 1 Ar 34.5089 42.7718 32.5746
21 1 Ar 35.031 30.6362 19.7745
22 1 Ar 10.168 44.2814 28.1414
23 1 Ar 15.3523 30.0411 16.6289
24 1 Ar 2.05981 1.14962 41.3
25 1 Ar 4.53126 18.7072 12.6266
26 1 Ar 28.5142 41.3714 28.3393
27 1 Ar 12.6872 17.652 9.3354
28 1 Ar 19.869 18.0022 37.42
29 1 Ar 45.6525 18.7112 6.93691
30 1 Ar 34.7416 39.3334 17.9393
31 1 Ar 3.91721 7.06822 39.464
32 1 Ar 38.8377 24.6876 43.6227
33 1 Ar 34.0048 29.603 10.3354
34 1 Ar 9.06391 20.0908 8.59653
35 1 Ar 3.50046 13.8469 34.4063
36 1 Ar 33.1253 31.007 33.8288
37 1 Ar 35.7318 7.45367 30.7337
38 1 Ar 44.4196 13.0832 13.4202
39 1 Ar 1.93601 28.3659 4.08928
40 1 Ar 45.3104 19.2448 43.2865
41 1 Ar 44.1711 20.1085 1.97439
42 1 Ar 28.1436 36.895 12.8912
43 1 Ar 4.73621 11.1138 38.5972
44 1 Ar 42.9376 10.2287 22.8036
45 1 Ar 34.5816 5.68328 46.0694
46 1 Ar 2.3282 4.70103 8.23325
47 1 Ar 35.3639 23.9497 44.2401
48 1 Ar 28.7033 0.408471 26.3442
49 1 Ar 35.8274 5.70632 36.7513
50 1 Ar 40.518 25.673 4.14877
51 1 Ar 9.24765 21.1567 22.2766
52 1 Ar 44.7005 23.5882 45.7929
53 1 Ar 35.3848 26.7082 4.06643
54 1 Ar 21.6253 22.2097 20.2194
55 1 Ar 6.95084 24.9664 36.8326
56 1 Ar 39.958 45.1445 45.7714
57 1 Ar 4.14356 28.8475 8.74877
58 1 Ar 1.60058 0.974476 6.40701
59 1 Ar 12.6731 41.4608 13.6582
60 1 Ar 7.13967 17.534 29.9526
61 1 Ar 7.76718 22.286 1.1825
62 1 Ar 2.37244 20.4888 40.7542
63 1 Ar 14.1794 16.6732 31.7866
64 1 Ar 22.4986 33.7 36.059
65 1 Ar 45.6252 37.6411 8.52183
66 1 Ar 29.0121 30.4213 37.5171
67 1 Ar 10.6371 5.21481 19.9011
68 1 Ar 29.4837 5.02544 8.40043
69 1 Ar 1.95011 14.2019 13.0248
70 1 Ar 4.41551 1.92101 27.1437
71 1 Ar 19.1668 39.531 14.1423
72 1 Ar 25.4445 31.7621 43.7041
73 1 Ar 15.4561 8.88729 1.01997
74 1 Ar 45.0592 36.7002 40.8887
75 1 Ar 9.31395 13.2704 28.8236
76 1 Ar 20.1911 39.3992 24.4195
77 1 Ar 20.0871 42.6118 16.4886
78 1 Ar 45.0859 29.3729 40.8015
79 1 Ar 23.5874 42.5604 1.71502
80 1 Ar 38.0269 41.6065 16.0142
81 1 Ar 2.08139 11.6832 2.62242
82 1 Ar 43.8589 27.2563 43.5139
83 1 Ar 17.0972 43.9485 29.1841
84 1 Ar 4.37871 4.62418 17.1969
85 1 Ar 37.7092 3.04102 16.6129
86 1 Ar 17.2587 26.6795 16.3513
87 1 Ar 9.13545 42.5442 18.0985
88 1 Ar 4.46169 13.6111 0.813009
89 1 Ar 6.61592 15.8854 4.9349
90 1 Ar 9.55954 35.0361 17.7304
91 1 Ar 42.9391 33.0644 12.5865
92 1 Ar 12.0079 17.8964 26.6788
93 1 Ar 2.66048 26.5297 43.7221
94 1 Ar 20.5638 5.50319 32.0175
95 1 Ar 15.0069 13.7738 33.9122
96 1 Ar 4.10451 17.7676 0.829898
97 1 Ar 19.5979 8.56254 5.81164
98 1 Ar 23.5754 17.808 1.84316
99 1 Ar 33.8293 41.5614 21.5139
100 1 Ar 11.8868 21.7866 7.46979
101 1 Ar 25.0517 4.46794 36.5871
102 1 Ar 33.2591 41.5462 9.42597
103 1 Ar 33.273 36.1363 43.7297
104 1 Ar 10.6586 29.4418 37.9668
105 1 Ar 31.0223 20.3824 32.6773
106 1 Ar 4.16454 22.7504 12.864
107 1 Ar 41.6633 19.9423 23.1058
108 1 Ar 6.4701 26.9892 27.0734
109 1 Ar 4.09691 38.4762 34.3067
110 1 Ar 29.3586 11.4633 1.75065
111 1 Ar 37.3155 27.7508 21.0793
112 1 Ar 14.4965 32.4751 40.777
113 1 Ar 17.7528 15.0872 36.5608
114 1 Ar 37.0045 44.3346 2.53699
115 1 Ar 7.66943 2.10665 42.264
116 1 Ar 27.6914 12.7678 40.5036
117 1 Ar 40.8615 6.89618 25.053
118 1 Ar 24.3517 38.8566 40.2081
119 1 Ar 13.8587 45.3649 43.4232
120 1 Ar 13.0909 14.0407 8.96849
121 1 Ar 28.4002 32.9978 42.5991
122 1 Ar 12.4246 27.8557 15.8596
123 1 Ar 4.04675 23.1981 1.12248
124 1 Ar 5.36468 9.72908 43.0125
125 1 Ar 12.2502 4.32915 32.9744
126 1 Ar 2.68898 40.5779 39.0958
127 1 Ar 23.3457 39.3717 5.21199
128 1 Ar 44.0471 2.00602 12.5767
129 1 Ar 8.81728 39.8616 7.67394
130 1 Ar 23.0194 6.53004 44.0902
131 1 Ar 15.9094 15.4387 18.2881
132 1 Ar 15.5593 8.06489 23.3036
133 1 Ar 24.6748 15.8473 32.7795
134 1 Ar 13.3782 15.0001 21.3128
135 1 Ar 13.1301 4.79523 22.3776
136 1 Ar 9.11666 43.6293 0.892185
137 1 Ar 12.2344 8.66679 8.81636
138 1 Ar 24.7813 36.8436 17.4237
139 1 Ar 8.01679 43.4268 43.9249
140 1 Ar 27.0096 25.3342 16.3911
141 1 Ar 8.12335 4.47659 24.8782
142 1 Ar 3.78943 9.55724 0.360725
143 1 Ar 7.67966 6.32041 40.1241
144 1 Ar 12.8072 11.5045 2.29829
145 1 Ar 8.31684 1.368 17.204
146 1 Ar 12.7405 3.0538 14.5739
147 1 Ar 12.0199 12.1693 14.0461
148 1 Ar 13.8799 24.0288 15.671
149 1 Ar 40.9873 7.43482 20.757
150 1 Ar 12.1173 15.279 3.45166
151 1 Ar 11.3348 9.19377 25.2556
152 1 Ar 10.1449 14.0242 43.2706
153 1 Ar 32.467 4.65571 13.5881
154 1 Ar 16.2036 12.9501 1.39961
155 1 Ar 8.26772 18.2723 17.6311
156 1 Ar 11.7844 16.0651 35.0482
157 1 Ar 34.923 43.2514 17.7109
158 1 Ar 40.0209 13.5388 0.0209267
159 1 Ar 7.1536 27.1012 32.6198
160 1 Ar 10.234 0.254879 3.38809
161 1 Ar 4.86606 27.7098 0.668705
162 1 Ar 12.3269 25.9225 23.8137
163 1 Ar 46.1331 1.84709 1.47012
164 1 Ar 24.7623 17.9462 20.4071
165 1 Ar 8.04906 1.65406 22.5016
166 1 Ar 31.2208 31.2784 30.6079
167 1 Ar 12.5569 27.6414 33.2512
168 1 Ar 9.18805 24.7462 8.70199
169 1 Ar 9.85508 16.1624 8.21366
170 1 Ar 46.1419 32.8665 42.8429
171 1 Ar 35.098 36.5509 39.8912
172 1 Ar 45.2359 23.8579 37.9573
173 1 Ar 37.1466 38.3632 21.4641
174 1 Ar 10.6216 16.754 29.9795
175 1 Ar 15.7409 19.0982 34.6039
176 1 Ar 41.5854 5.31391 12.3186
177 1 Ar 7.46816 31.7904 8.25857
178 1 Ar 15.8203 30.5871 7.07843
179 1 Ar 8.56571 32.6559 14.762
180 1 Ar 8.81751 26.5631 23.0256
181 1 Ar 36.1215 29.2127 7.49104
182 1 Ar 9.96 27.889 28.719
183 1 Ar 18.9639 34.5239 44.7067
184 1 Ar 44.2725 37.0404 2.14535
185 1 Ar 13.483 0.496899 38.8972
186 1 Ar 20.8113 31.1774 45.0338
187 1 Ar 13.1782 43.694 9.87133
188 1 Ar 43.4607 28.2504 37.7165
189 1 Ar 10.3132 31.0257 30.3983
190 1 Ar 19.1457 26.2212 20.3854
191 1 Ar 39.3368 19.6386 16.8573
192 1 Ar 43.0205 37.5866 5.92661
193 1 Ar 15.6243 1.2795 12.0802
194 1 Ar 1.01787 36.006 44.6001
195 1 Ar 9.34185 15.2494 24.9011
196 1 Ar 31.1608 4.60584 4.96743
197 1 Ar 20.4815 2.40045 21.2981
198 1 Ar 11.1945 8.87675 12.6342
199 1 Ar 20.5378 30.252 37.1621
200 1 Ar 11.6518 36.4573 41.7098
201 1 Ar 25.1668 7.7622 8.51101
202 1 Ar 19.1533 3.2947 13.7334
203 1 Ar 0.711114 31.8399 21.2983
204 1 Ar 16.0361 3.84054 18.9399
205 1 Ar 35.2351 27.0382 17.3633
206 1 Ar 19.2893 6.04922 28.3459
207 1 Ar 12.643 1.42401 9.22496
208 1 Ar 5.81199 5.01163 2.04838
209 1 Ar 13.9807 5.35877 7.11639
210 1 Ar 36.5948 14.7217 42.3588
211 1 Ar 10.9849 27.7571 4.45121
212 1 Ar 12.906 38.0985 15.0392
213 1 Ar 14.2974 7.93647 28.0009
214 1 Ar 16.202 11.23 27.1298
215 1 Ar 38.8958 29.59 5.52471
216 1 Ar 13.6958 9.95636 43.9988
217 1 Ar 1.93069 18.8459 3.65661
218 1 Ar 22.3197 28.8669 17.5226
219 1 Ar 24.8033 13.3709 2.84681
220 1 Ar 14.0079 18.8204 17.9552
221 1 Ar 17.3755 17.8032 20.1295
222 1 Ar 17.062 17.285 29.3585
223 1 Ar 27.3667 14.9321 20.5147
224 1 Ar 15.3044 20.3513 7.90227
225 1 Ar 16.7542 41.1316 21.23
226 1 Ar 24.8222 18.2947 7.86476
227 1 Ar 29.2454 41.286 32.8589
228 1 Ar 24.8587 35.3994 28.8251
229 1 Ar 43.1718 23.3772 41.7323
230 1 Ar 14.3844 14.7107 28.5673
231 1 Ar 21.0825 17.8463 27.3303
232 1 Ar 11.5523 23.5311 11.1055
233 1 Ar 28.6142 38.8547 9.59655
234 1 Ar 20.278 24.8509 10.9356
235 1 Ar 37.9417 24.7345 6.58717
236 1 Ar 6.62498 39.2508 39.3552
237 1 Ar 45 34.3905 8.08759
238 1 Ar 8.08145 20.6372 5.43826
239 1 Ar 21.4514 39.3055 9.46544
240 1 Ar 17.5284 30.943 43.8316
241 1 Ar 22.9103 0.527339 5.89501
242 1 Ar 0.38722 19.1016 12.5128
243 1 Ar 28.9865 11.5371 18.9972
244 1 Ar 6.42134 45.5928 20.2706
245 1 Ar 32.2478 23.817 38.9189
246 1 Ar 15.8775 23.1066 30.0401
247 1 Ar 9.33006 23.7966 26.7394
248 1 Ar 12.1718 1.87538 46.0467
249 1 Ar 5.9273 5.31461 21.3464
250 1 Ar 13.9253 11.9668 20.3083
251 1 Ar 39.8014 14.5006 24.8065
252 1 Ar 16.6044 41.502 12.7916
253 1 Ar 9.96799 31.5642 44.7039
254 1 Ar 45.7561 36.3918 22.8804
255 1 Ar 17.5624 35.0453 36.6724
256 1 Ar 40.8438 18.5948 34.7272
257 1 Ar 9.75711 1.77917 27.1231
258 1 Ar 11.1683 0.864591 31.096
259 1 Ar 17.7392 7.86744 15.0869
260 1 Ar 19.978 20.6726 11.521
261 1 Ar 18.03 6.1417 21.1833
262 1 Ar 26.2876 14.0641 27.1401
263 1 Ar 12.5339 45.4297 13.1137
264 1 Ar 6.23787 1.20634 34.3039
265 1 Ar 19.1039 1.61804 38.476
266 1 Ar 30.6794 27.5178 40.2331
267 1 Ar 18.4228 4.48582 16.8156
268 1 Ar 20.0496 8.81166 19.9219
269 1 Ar 29.3807 20.6567 18.2794
270 1 Ar 20.8477 4.28528 24.793
271 1 Ar 24.7728 29.2942 37.7791
272 1 Ar 16.2207 25.5334 7.22176
273 1 Ar 22.3176 5.572 11.469
274 1 Ar 20.9371 42.8829 9.23265
275 1 Ar 12.1031 42.2889 30.313
276 1 Ar 17.4317 12.784 23.2666
277 1 Ar 8.93322 6.37381 16.3641
278 1 Ar 15.6942 8.39023 32.1642
279 1 Ar 29.3952 12.0005 36.6481
280 1 Ar 43.7652 14.5867 42.3977
281 1 Ar 39.1681 11.3235 13.7289
282 1 Ar 25.1533 35.0243 14.4183
283 1 Ar 41.9231 41.1291 42.9121
284 1 Ar 21.5384 24.1788 4.22034
285 1 Ar 19.4117 15.0071 25.868
286 1 Ar 24.1028 15.905 15.8372
287 1 Ar 37.5769 39.2577 10.104
288 1 Ar 21.0708 30.8222 20.0023
289 1 Ar 18.8273 20.8247 2.32624
290 1 Ar 26.1841 42.0866 7.23338
291 1 Ar 20.6515 15.7268 22.2618
292 1 Ar 29.0482 22.8305 36.7844
293 1 Ar 26.4499 29.0875 28.979
294 1 Ar 32.7833 1.06095 12.4345
295 1 Ar 30.546 26.8725 8.90728
296 1 Ar 30.0451 33.8693 35.9983
297 1 Ar 32.0392 20.7615 2.68285
298 1 Ar 20.612 26.9151 14.5138
299 1 Ar 35.0566 3.10974 11.2393
300 1 Ar 13.9675 13.0704 24.9712
301 1 Ar 28.2795 34.367 22.1076
302 1 Ar 18.4511 22.2236 26.9738
303 1 Ar 30.5794 22.0493 15.2327
304 1 Ar 28.7527 34.3689 32.6083
305 1 Ar 14.0797 34.2077 10.9167
306 1 Ar 17.7772 38.4064 9.13826
307 1 Ar 11.2285 42.2695 43.2939
308 1 Ar 17.3473 32.1908 33.2667
309 1 Ar 26.7568 32.0039 24.5012
310 1 Ar 24.0463 37.0542 35.9408
311 1 Ar 38.1242 12.4696 39.2072
312 1 Ar 0.0787065 34.532 11.9129
313 1 Ar 24.2716 37.4267 1.08089
314 1 Ar 33.4649 34.7897 34.6102
315 1 Ar 9.44685 9.46539 2.61433
316 1 Ar 4.16843 32.5183 15.8467
317 1 Ar 26.5671 41.2629 24.4866
318 1 Ar 33.5797 32.7756 40.2563
319 1 Ar 21.3779 30.992 2.47691
320 1 Ar 21.2505 11.4673 43.5076
321 1 Ar 23.0386 12.5364 14.5168
322 1 Ar 25.8236 3.78724 14.3009
323 1 Ar 13.3164 7.60532 14.935
324 1 Ar 41.2529 0.658273 19.7814
325 1 Ar 17.8938 10.1715 11.5847
326 1 Ar 19.684 11.4905 7.77748
327 1 Ar 12.5694 7.60415 5.04612
328 1 Ar 27.3164 39.4373 4.06861
329 1 Ar 13.5284 1.44849 35.3354
330 1 Ar 25.6526 44.5002 15.287
331 1 Ar 24.6137 38.3349 25.4645
332 1 Ar 23.9704 6.88779 14.894
333 1 Ar 23.6052 13.9275 19.5591
334 1 Ar 26.6975 28.3099 20.2939
335 1 Ar 38.101 6.70808 18.8358
336 1 Ar 29.3737 5.82148 0.946373
337 1 Ar 27.551 2.37502 6.92908
338 1 Ar 17.4178 22.8256 16.975
339 1 Ar 38.5428 41.2569 33.3153
340 1 Ar 25.4079 9.12609 21.8867
341 1 Ar 21.702 12.0671 26.9869
342 1 Ar 19.9175 6.88632 39.2488
343 1 Ar 34.8571 18.2632 14.3242
344 1 Ar 27.9592 22.644 5.74034
345 1 Ar 32.5115 15.1638 37.3652
346 1 Ar 11.7034 1.85924 41.9141
347 1 Ar 40.3451 45.9258 13.1136
348 1 Ar 23.876 19.9677 27.2358
349 1 Ar 15.4215 38.239 44.7136
350 1 Ar 27.9764 10.0003 27.5218
351 1 Ar 14.6082 29.0714 36.0109
352 1 Ar 40.9835 23.877 25.1967
353 1 Ar 30.9289 22.8666 11.5185
354 1 Ar 18.3145 16.393 5.35013
355 1 Ar 9.18503 30.1961 17.7829
356 1 Ar 22.9506 18.3335 23.7427
357 1 Ar 25.6324 21.7725 22.9569
358 1 Ar 0.483872 32.5773 15.5296
359 1 Ar 30.1052 4.43692 37.6993
360 1 Ar 21.14 13.9155 5.65606
361 1 Ar 38.7176 25.127 34.241
362 1 Ar 36.1421 39.6907 46.0506
363 1 Ar 17.4688 6.20604 11.8687
364 1 Ar 40.7742 15.4163 40.4233
365 1 Ar 39.6073 10.6071 22.4472
366 1 Ar 24.5219 29.1844 32.2883
367 1 Ar 27.8621 32.4789 0.825937
368 1 Ar 23.8151 22.0598 8.81357
369 1 Ar 16.2723 1.55734 43.983
370 1 Ar 19.3822 15.999 1.3886
371 1 Ar 23.3975 28.442 12.0944
372 1 Ar 1.11465 45.777 25.6486
373 1 Ar 29.3777 23.7267 32.5462
374 1 Ar 33.5812 7.26773 2.9475
375 1 Ar 19.4011 40.6269 42.2145
376 1 Ar 38.1196 33.2489 40.2356
377 1 Ar 9.51711 0.790998 12.7837
378 1 Ar 26.0167 31.636 13.3089
379 1 Ar 25.2791 38.457 11.2333
380 1 Ar 28.3153 35.5366 17.7274
381 1 Ar 31.7263 38.0536 32.9076
382 1 Ar 25.5286 42.2669 34.121
383 1 Ar 35.3367 40.0251 7.41446
384 1 Ar 30.6694 8.01424 4.14881
385 1 Ar 39.4101 7.10575 9.74159
386 1 Ar 6.01796 27.8044 4.53111
387 1 Ar 31.2233 14.3305 17.5368
388 1 Ar 17.45 12.9416 5.01915
389 1 Ar 34.5202 3.79311 25.3549
390 1 Ar 33.6303 19.384 45.723
391 1 Ar 24.0446 9.2673 17.4331
392 1 Ar 38.8697 1.16996 35.3963
393 1 Ar 6.38038 22.9143 32.2561
394 1 Ar 31.2771 38.311 19.4469
395 1 Ar 37.8474 19.4524 9.85071
396 1 Ar 22.1403 6.85366 18.4551
397 1 Ar 24.8466 16.4247 4.93664
398 1 Ar 25.3411 39.6317 31.108
399 1 Ar 24.1725 10.2235 44.9574
400 1 Ar 7.71325 17.6637 10.8857
401 1 Ar 19.652 2.99934 5.86906
402 1 Ar 30.7182 35.9597 40.0443
403 1 Ar 36.342 45.9213 11.7366
404 1 Ar 29.8545 13.9479 23.2767
405 1 Ar 21.726 34.514 0.830786
406 1 Ar 41.2805 15.818 22.06
407 1 Ar 26.8083 0.460587 23.3721
408 1 Ar 37.5044 20.9169 43.0415
409 1 Ar 13.0551 20.2315 2.91371
410 1 Ar 24.244 5.72036 1.60579
411 1 Ar 18.7836 45.069 2.50987
412 1 Ar 21.269 11.6057 39.0221
413 1 Ar 27.1001 4.08828 20.4955
414 1 Ar 1.33614 10.472 32.044
415 1 Ar 15.5606 7.44033 35.7782
416 1 Ar 2.88224 44.96 43.7137
417 1 Ar 31.8253 31.6383 21.4677
418 1 Ar 42.9871 16.6766 45.0182
419 1 Ar 3.69987 17.9498 43.5004
420 1 Ar 30.4659 31.6394 15.6098
421 1 Ar 44.0208 26.1639 2.76396
422 1 Ar 37.0167 6.28221 12.1685
423 1 Ar 19.6377 19.7343 24.5715
424 1 Ar 9.48858 33.5601 37.4241
425 1 Ar 24.8311 25.031 11.4142
426 1 Ar 35.1438 15.068 17.0267
427 1 Ar 27.4989 38.1558 23.5335
428 1 Ar 11.0658 2.84724 5.57207
429 1 Ar 9.08232 6.72035 8.05435
430 1 Ar 2.41468 28.2181 40.1694
431 1 Ar 16.2452 35.1314 42.8559
432 1 Ar 41.7459 43.6763 3.9262
433 1 Ar 31.4135 26.7903 3.42172
434 1 Ar 22.8581 25.0748 7.67467
435 1 Ar 39.3258 29.995 11.1187
436 1 Ar 38.4536 5.844 6.33984
437 1 Ar 25.4412 32.2699 36.1984
438 1 Ar 35.4471 45.429 20.3376
439 1 Ar 5.49358 3.18803 38.5257
440 1 Ar 18.8386 5.26865 8.33059
441 1 Ar 21.251 1.61939 11.1905
442 1 Ar 30.8242 44.5776 33.7495
443 1 Ar 30.5696 12.3875 30.688
444 1 Ar 30.4807 16.1653 30.3701
445 1 Ar 33.6807 28.6661 23.8992