ITEM: TIMESTEP
-1
ITEM: NUMBER OF ATOMS
500
ITEM: BOX BOUNDS pp pp pp
0 40.3115
0 40.3115
0 40.3115
ITEM: ATOMS id type element xu yu zu
0 1 Ar 0 0 0
1 1 Ar 0 0 4.47905
2 1 Ar 0 0 8.9581
3 1 Ar 0 0 13.4372
4 1 Ar 0 0 17.9162
5 1 Ar 0 0 22.3953
6 1 Ar 0 0 26.8743
7 1 Ar 0 0 31.3534
8 1 Ar 0 4.47905 0
9 1 Ar 0 4.47905 4.47905
10 1 Ar 0 4.47905 8.9581
11 1 Ar 0 4.47905 13.4372
12 1 Ar 0 4.47905 17.9162
13 1 Ar 0 4.47905 22.3953
14 1 Ar 0 4.47905 26.8743
15 1 Ar 0 4.47905 31.3534
16 1 Ar 0 8.9581 0
17 1 Ar 0 8.9581 4.47905
18 1 Ar 0 8.9581 8.9581
19 1 Ar 0 8.9581 13.4372
20 1 Ar 0 8.9581 17.9162
21 1 Ar 0 8.9581 22.3953
22 1 Ar 0 8.9581 26.8743
23 1 Ar 0 8.9581 31.3534
24 1 Ar 0 13.4372 0
25 1 Ar 0 13.4372 4.47905
26 1 Ar 0 13.4372 8.9581
27 1 Ar 0 13.4372 13.4372
28 1 Ar 0 13.4372 17.9162
29 1 Ar 0 13.4372 22.3953
30 1 Ar 0 13.4372 26.8743
31 1 Ar 0 13.4372 31.3534
32 1 Ar 0 17.9162 0
33 1 Ar 0 17.9162 4.47905
34 1 Ar 0 17.9162 8.9581
35 1 Ar 0 17.9162 13.4372
36 1 Ar 0 17.9162 17.9162
37 1 Ar 0 17.9162 22.3953
38 1 Ar 0 17.9162 26.8743
39 1 Ar 0 17.9162 31.3534
40 1 Ar 0 22.3953 0
41 1 Ar 0 22.3953 4.47905
42 1 Ar 0 22.3953 8.9581
43 1 Ar 0 22.3953 13.4372
44 1 Ar 0 22.3953 17.9162
45 1 Ar 0 22.3953 22.3953
46 1 Ar 0 22.3953 26.8743
47 1 Ar 0 22.3953 31.3534
48 1 Ar 0 26.8743 0
49 1 Ar 0 26.8743 4.47905
50 1 Ar 0 26.8743 8.9581
51 1 Ar 0 26.8743 13.4372
52 1 Ar 0 26.8743 17.9162
53 1 Ar 0 26.8743 22.3953
54 1 Ar 0 26.8743 26.8743
55 1 Ar 0 26.8743 31.3534
56 1 Ar 0 31.3534 0
57 1 Ar 0 31.3534 4.47905
58 1 Ar 0 31.3534 8.9581
59 1 Ar 0 31.3534 13.4372
60 1 Ar 0 31.3534 17.9162
61 1 Ar 0 31.3534 22.3953
62 1 Ar 0 31.3534 26.8743
63 1 Ar 0 31.3534 31.3534
64 1 Ar 4.47905 0 0
65 1 Ar 4.47905 0 4.47905
66 1 Ar 4.47905 0 8.9581
67 1 Ar 4.47905 0 13.4372
68 1 Ar 4.47905 0 17.9162
69 1 Ar 4.47905 0 22.3953
70 1 Ar 4.47905 0 26.8743
71 1 Ar 4.47905 0 31.3534
72 1 Ar 4.47905 4.47905 0
73 1 Ar 4.47905 4.47905 4.47905
74 1 Ar 4.47905 4.47905 8.9581
75 1 Ar 4.47905 4.47905 13.4372
76 1 Ar 4.47905 4.47905 17.9162
77 1 Ar 4.47905 4.47905 22.3953
78 1 Ar 4.47905 4.47905 26.8743
79 1 Ar 4.47905 4.47905 31.3534
80 1 Ar 4.47905 8.9581 0
81 1 Ar 4.47905 8.9581 4.47905
82 1 Ar 4.47905 8.9581 8.9581
83 1 Ar 4.47905 8.9581 13.4372
84 1 Ar 4.47905 8.9581 17.9162
85 1 Ar 4.47905 8.9581 22.3953
86 1 Ar 4.47905 8.9581 26.8743
87 1 Ar 4.47905 8.9581 31.3534
88 1 Ar 4.47905 13.4372 0
89 1 Ar 4.47905 13.4372 4.47905
90 1 Ar 4.47905 13.4372 8.9581
91 1 Ar 4.47905 13.4372 13.4372
92 1 Ar 4.47905 13.4372 17.9162
93 1 Ar 4.47905 13.4372 22.3953
94 1 Ar 4.47905 13.4372 26.8743
95 1 Ar 4.47905 13.4372 31.3534
96 1 Ar 4.47905 17.9162 0
97 1 Ar 4.47905 17.9162 4.47905
98 1 Ar 4.47905 17.9162 8.9581
99 1 Ar 4.47905 17.9162 13.4372
100 1 Ar 4.47905 17.9162 17.9162
101 1 Ar 4.47905 17.9162 22.3953
102 1 Ar 4.47905 17.9162 26.8743
103 1 Ar 4.47905 17.9162 31.3534
104 1 Ar 4.47905 22.3953 0
105 1 Ar 4.47905 22.3953 4.47905
106 1 Ar 4.47905 22.3953 8.9581
107 1 Ar 4.47905 22.3953 13.4372
108 1 Ar 4.47905 22.3953 17.9162
109 1 Ar 4.47905 22.3953 22.3953
110 1 Ar 4.47905 22.3953 26.8743
111 1 Ar 4.47905 22.3953 31.3534
112 1 Ar 4.47905 26.8743 0
113 1 Ar 4.47905 26.8743 4.47905
114 1 Ar 4.47905 26.8743 8.9581
115 1 Ar 4.47905 26.8743 13.4372
116 1 Ar 4.47905 26.8743 17.9162
117 1 Ar 4.47905 26.8743 22.3953
118 1 Ar 4.47905 26.8743 26.8743
119 1 Ar 4.47905 26.8743 31.3534
120 1 Ar 4.47905 31.3534 0
121 1 Ar 4.47905 31.3534 4.47905
122 1 Ar 4.47905 31.3534 8.9581
123 1 Ar 4.47905 31.3534 13.4372
124 1 Ar 4.47905 31.3534 17.9162
125 1 Ar 4.47905 31.3534 22.3953
126 1 Ar 4.47905 31.3534 26.8743
127 1 Ar 4.47905 31.3534 31.3534
128 1 Ar 8.9581 0 0
129 1 Ar 8.9581 0 4.47905
130 1 Ar 8.9581 0 8.9581
131 1 Ar 8.9581 0 13.4372
132 1 Ar 8.9581 0 17.9162
133 1 Ar 8.9581 0 22.3953
134 1 Ar 8.9581 0 26.8743
135 1 Ar 8.9581 0 31.3534
136 1 Ar 8.9581 4.47905 0
137 1 Ar 8.9581 4.47905 4.47905
138 1 Ar 8.9581 4.47905 8.9581
139 1 Ar 8.9581 4.47905 13.4372
140 1 Ar 8.9581 4.47905 17.9162
141 1 Ar 8.9581 4.47905 22.3953
142 1 Ar 8.9581 4.47905 26.8743
143 1 Ar 8.9581 4.47905 31.3534
144 1 Ar 8.9581 8.9581 0
145 1 Ar 8.9581 8.9581 4.47905
146 1 Ar 8.9581 8.9581 8.9581
147 1 Ar 8.9581 8.9581 13.4372
148 1 Ar 8.9581 8.9581 17.9162
149 1 Ar 8.9581 8.9581 22.3953
150 1 Ar 8.9581 8.9581 26.8743
151 1 Ar 8.9581 8.9581 31.3534
152 1 Ar 8.9581 13.4372 0
153 1 Ar 8.9581 13.4372 4.47905
154 1 Ar 8.9581 13.4372 8.9581
155 1 Ar 8.9581 13.4372 13.4372
156 1 Ar 8.9581 13.4372 17.9162
157 1 Ar 8.9581 13.4372 22.3953
158 1 Ar 8.9581 13.4372 26.8743
159 1 Ar 8.9581 13.4372 31.3534
160 1 Ar 8.9581 17.9162 0
161 1 Ar 8.9581 17.9162 4.47905
162 1 Ar 8.9581 17.9162 8.9581
163 1 Ar 8.9581 17.9162 13.4372
164 1 Ar 8.9581 17.9162 17.9162
165 1 Ar 8.9581 17.9162 22.3953
166 1 Ar 8.9581 17.9162 26.8743
167 1 Ar 8.9581 17.9162 31.3534
168 1 Ar 8.9581 22.3953 0
169 1 Ar 8.9581 22.3953 4.47905
170 1 Ar 8.9581 22.3953 8.9581
171 1 Ar 8.9581 22.3953 13.4372
172 1 Ar 8.9581 22.3953 17.9162
173 1 Ar 8.9581 22.3953 22.3953
174 1 Ar 8.9581 22.3953 26.8743
175 1 Ar 8.9581 22.3953 31.3534
176 1 Ar 8.9581 26.8743 0
177 1 Ar 8.9581 26.8743 4.47905
178 1 Ar 8.9581 26.8743 8.9581
179 1 Ar 8.9581 26.8743 13.4372
180 1 Ar 8.9581 26.8743 17.9162
181 1 Ar 8.9581 26.8743 22.3953
182 1 Ar 8.9581 26.8743 26.8743
183 1 Ar 8.9581 26.8743 31.3534
184 1 Ar 8.9581 31.3534 0
185 1 Ar 8.9581 31.3534 4.47905
186 1 Ar 8.9581 31.3534 8.9581
187 1 Ar 8.9581 31.3534 13.4372
188 1 Ar 8.9581 31.3534 17.9162
189 1 Ar 8.9581 31.3534 22.3953
190 1 Ar 8.9581 31.3534 26.8743
191 1 Ar 8.9581 31.3534 31.3534
192 1 Ar 13.4372 0 0
193 1 Ar 13.4372 0 4.47905
194 1 Ar 13.4372 0 8.9581
195 1 Ar 13.4372 0 13.4372
196 1 Ar 13.4372 0 17.9162
197 1 Ar 13.4372 0 22.3953
198 1 Ar 13.4372 0 26.8743
199 1 Ar 13.4372 0 31.3534
200 1 Ar 13.4372 4.47905 0
201 1 Ar 13.4372 4.47905 4.47905
202 1 Ar 13.4372 4.47905 8.9581
203 1 Ar 13.4372 4.47905 13.4372
204 1 Ar 13.4372 4.47905 17.9162
205 1 Ar 13.4372 4.47905 22.3953
206 1 Ar 13.4372 4.47905 26.8743
207 1 Ar 13.4372 4.47905 31.3534
208 1 Ar 13.4372 8.9581 0
209 1 Ar 13.4372 8.9581 4.47905
210 1 Ar 13.4372 8.9581 8.9581
211 1 Ar 13.4372 8.9581 13.4372
212 1 Ar 13.4372 8.9581 17.9162
213 1 Ar 13.4372 8.9581 22.3953
214 1 Ar 13.4372 8.9581 26.8743
215 1 Ar 13.4372 8.9581 31.3534
216 1 Ar 13.4372 13.4372 0
217 1 Ar 13.4372 13.4372 4.47905
218 1 Ar 13.4372 13.4372 8.9581
219 1 Ar 13.4372 13.4372 13.4372
220 1 Ar 13.4372 13.4372 17.9162
221 1 Ar 13.4372 13.4372 22.3953
222 1 Ar 13.4372 13.4372 26.8743
223 1 Ar 13.4372 13.4372 31.3534
224 1 Ar 13.4372 17.9162 0
225 1 Ar 13.4372 17.9162 4.47905
226 1 Ar 13.4372 17.9162 8.9581
227 1 Ar 13.4372 17.9162 13.4372
228 1 Ar 13.4372 17.9162 17.9162
229 1 Ar 13.4372 17.9162 22.3953
230 1 Ar 13.4372 17.9162 26.8743
231 1 Ar 13.4372 17.9162 31.3534
232 1 Ar 13.4372 22.3953 0
233 1 Ar 13.4372 22.3953 4.47905
234 1 Ar 13.4372 22.3953 8.9581
235 1 Ar 13.4372 22.3953 13.4372
236 1 Ar 13.4372 22.3953 17.9162
237 1 Ar 13.4372 22.3953 22.3953
238 1 Ar 13.4372 22.3953 26.8743
239 1 Ar 13.4372 22.3953 31.3534
240 1 Ar 13.4372 26.8743 0
241 1 Ar 13.4372 26.8743 4.47905
242 1 Ar 13.4372 26.8743 8.9581
243 1 Ar 13.4372 26.8743 13.4372
244 1 Ar 13.4372 26.8743 17.9162
245 1 Ar 13.4372 26.8743 22.3953
246 1 Ar 13.4372 26.8743 26.8743
247 1 Ar 13.4372 26.8743 31.3534
248 1 Ar 13.4372 31.3534 0
249 1 Ar 13.4372 31.3534 4.47905
250 1 Ar 13.4372 31.3534 8.9581
251 1 Ar 13.4372 31.3534 13.4372
252 1 Ar 13.4372 31.3534 17.9162
253 1 Ar 13.4372 31.3534 22.3953
254 1 Ar 13.4372 31.3534 26.8743
255 1 Ar 13.4372 31.3534 31.3534
256 1 Ar 17.9162 0 0
257 1 Ar 17.9162 0 4.47905
258 1 Ar 17.9162 0 8.9581
259 1 Ar 17.9162 0 13.4372
260 1 Ar 17.9162 0 17.9162
261 1 Ar 17.9162 0 22.3953
262 1 Ar 17.9162 0 26.8743
263 1 Ar 17.9162 0 31.3534
264 1 Ar 17.9162 4.47905 0
265 1 Ar 17.9162 4.47905 4.47905
266 1 Ar 17.9162 4.47905 8.9581
267 1 Ar 17.9162 4.47905 13.4372
268 1 Ar 17.9162 4.47905 17.9162
269 1 Ar 17.9162 4.47905 22.3953
270 1 Ar 17.9162 4.47905 26.8743
271 1 Ar 17.9162 4.47905 31.3534
272 1 Ar 17.9162 8.9581 0
273 1 Ar 17.9162 8.9581 4.47905
274 1 Ar 17.9162 8.9581 8.9581
275 1 Ar 17.9162 8.9581 13.4372
276 1 Ar 17.9162 8.9581 17.9162
277 1 Ar 17.9162 8.9581 22.3953
278 1 Ar 17.9162 8.9581 26.8743
279 1 Ar 17.9162 8.9581 31.3534
280 1 Ar 17.9162 13.4372 0
281 1 Ar 17.9162 13.4372 4.47905
282 1 Ar 17.9162 13.4372 8.9581
283 1 Ar 17.9162 13.4372 13.4372
284 1 Ar 17.9162 13.4372 17.9162
285 1 Ar 17.9162 13.4372 22.3953
286 1 Ar 17.9162 13.4372 26.8743
287 1 Ar 17.9162 13.4372 31.3534
288 1 Ar 17.9162 17.9162 0
289 1 Ar 17.9162 17.9162 4.47905
290 1 Ar 17.9162 17.9162 8.9581
291 1 Ar 17.9162 17.9162 13.4372
292 1 Ar 17.9162 17.9162 17.9162
293 1 Ar 17.9162 17.9162 22.3953
294 1 Ar 17.9162 17.9162 26.8743
295 1 Ar 17.9162 17.9162 31.3534
296 1 Ar 17.9162 22.3953 0
297 1 Ar 17.9162 22.3953 4.47905
298 1 Ar 17.9162 22.3953 8.9581
299 1 Ar 17.9162 22.3953 13.4372
300 1 Ar 17.9162 22.3953 17.9162
301 1 Ar 17.9162 22.3953 22.3953
302 1 Ar 17.9162 22.3953 26.8743
303 1 Ar 17.9162 22.3953 31.3534
304 1 Ar 17.9162 26.8743 0
305 1 Ar 17.9162 26.8743 4.47905
306 1 Ar 17.9162 26.8743 8.9581
307 1 Ar 17.9162 26.8743 13.4372
308 1 Ar 17.9162 26.8743 17.9162
309 1 Ar 17.9162 26.8743 22.3953
310 1 Ar 17.9162 26.8743 26.8743
311 1 Ar 17.9162 26.8743 31.3534
312 1 Ar 17.9162 31.3534 0
313 1 Ar 17.9162 31.3534 4.47905
314 1 Ar 17.9162 31.3534 8.9581
315 1 Ar 17.9162 31.3534 13.4372
316 1 Ar 17.9162 31.3534 17.9162
317 1 Ar 17.9162 31.3534 22.3953
318 1 Ar 17.9162 31.3534 26.8743
319 1 Ar 17.9162 31.3534 31.3534
320 1 Ar 22.3953 0 0
321 1 Ar 22.3953 0 4.47905
322 1 Ar 22.3953 0 8.9581
323 1 Ar 22.3953 0 13.4372
324 1 Ar 22.3953 0 17.9162
325 1 Ar 22.3953 0 22.3953
326 1 Ar 22.3953 0 26.8743
327 1 Ar 22.3953 0 31.3534
328 1 Ar 22.3953 4.47905 0
329 1 Ar 22.3953 4.47905 4.47905
330 1 Ar 22.3953 4.47905 8.9581
331 1 Ar 22.3953 4.47905 13.4372
332 1 Ar 22.3953 4.47905 17.9162
333 1 Ar 22.3953 4.47905 22.3953
334 1 Ar 22.3953 4.47905 26.8743
335 1 Ar 22.3953 4.47905 31.3534
336 1 Ar 22.3953 8.9581 0
337 1 Ar 22.3953 8.9581 4.47905
338 1 Ar 22.3953 8.9581 8.9581
339 1 Ar 22.3953 8.9581 13.4372
340 1 Ar 22.3953 8.9581 17.9162
341 1 Ar 22.3953 8.9581 22.3953
342 1 Ar 22.3953 8.9581 26.8743
343 1 Ar 22.3953 8.9581 31.3534
344 1 Ar 22.3953 13.4372 0
345 1 Ar 22.3953 13.4372 4.47905
346 1 Ar 22.3953 13.4372 8.9581
347 1 Ar 22.3953 13.4372 13.4372
348 1 Ar 22.3953 13.4372 17.9162
349 1 Ar 22.3953 13.4372 22.3953
350 1 Ar 22.3953 13.4372 26.8743
351 1 Ar 22.3953 13.4372 31.3534
352 1 Ar 22.3953 17.9162 0
353 1 Ar 22.3953 17.9162 4.47905
354 1 Ar 22.3953 17.9162 8.9581
355 1 Ar 22.3953 17.9162 13.4372
356 1 Ar 22.3953 17.9162 17.9162
357 1 Ar 22.3953 17.9162 22.3953
358 1 Ar 22.3953 17.9162 26.8743
359 1 Ar 22.3953 17.9162 31.3534
360 1 Ar 22.3953 22.3953 0
361 1 Ar 22.3953 22.3953 4.47905
362 1 Ar 22.3953 22.3953 8.9581
363 1 Ar 22.3953 22.3953 13.4372
364 1 Ar 22.3953 22.3953 17.9162
365 1 Ar 22.3953 22.3953 22.3953
366 1 Ar 22.3953 22.3953 26.8743
367 1 Ar 22.3953 22.3953 31.3534
368 1 Ar 22.3953 26.8743 0
369 1 Ar 22.3953 26.8743 4.47905
370 1 Ar 22.3953 26.8743 8.9581
371 1 Ar 22.3953 26.8743 13.4372
372 1 Ar 22.3953 26.8743 17.9162
373 1 Ar 22.3953 26.8743 22.3953
374 1 Ar 22.3953 26.8743 26.8743
375 1 Ar 22.3953 26.8743 31.3534
376 1 Ar 22.3953 31.3534 0
377 1 Ar 22.3953 31.3534 4.47905
378 1 Ar 22.3953 31.3534 8.9581
379 1 Ar 22.3953 31.3534 13.4372
380 1 Ar 22.3953 31.3534 17.9162
381 1 Ar 22.3953 31.3534 22.3953
382 1 Ar 22.3953 31.3534 26.8743
383 1 Ar 22.3953 31.3534 31.3534
384 1 Ar 26.8743 0 0
385 1 Ar 26.8743 0 4.47905
386 1 Ar 26.8743 0 8.9581
387 1 Ar 26.8743 0 13.4372
388 1 Ar 26.8743 0 17.9162
389 1 Ar 26.8743 0 22.3953
390 1 Ar 26.8743 0 26.8743
391 1 Ar 26.8743 0 31.3534
392 1 Ar 26.8743 4.47905 0
393 1 Ar 26.8743 4.47905 4.47905
394 1 Ar 26.8743 4.47905 8.9581
395 1 Ar 26.8743 4.47905 13.4372
396 1 Ar 26.8743 4.47905 17.9162
397 1 Ar 26.8743 4.47905 22.3953
398 1 Ar 26.8743 4.47905 26.8743
399 1 Ar 26.8743 4.47905 31.3534
400 1 Ar 26.8743 8.9581 0
401 1 Ar 26.8743 8.9581 4.47905
402 1 Ar 26.8743 8.9581 8.9581
403 1 Ar 26.8743 8.9581 13.4372
404 1 Ar 26.8743 8.9581 17.9162
405 1 Ar 26.8743 8.9581 22.3953
406 1 Ar 26.8743 8.9581 26.8743
407 1 Ar 26.8743 8.9581 31.3534
408 1 Ar 26.8743 13.4372 0
409 1 Ar 26.8743 13.4372 4.47905
410 1 Ar 26.8743 13.4372 8.9581
411 1 Ar 26.8743 13.4372 13.4372
412 1 Ar 26.8743 13.4372 17.9162
413 1 Ar 26.8743 13.4372 22.3953
414 1 Ar 26.8743 13.4372 26.8743
415 1 Ar 26.8743 13.4372 31.3534
416 1 Ar 26.8743 17.9162 0
417 1 Ar 26.8743 17.9162 4.47905
418 1 Ar 26.8743 17.9162 8.9581
419 1 Ar 26.8743 17.9162 13.4372
420 1 Ar 26.8743 17.9162 17.9162
421 1 Ar 26.8743 17.9162 22.3953
422 1 Ar 26.8743 17.9162 26.8743
423 1 Ar 26.8743 17.9162 31.3534
424 1 Ar 26.8743 22.3953 0
425 1 Ar 26.8743 22.3953 4.47905
426 1 Ar 26.8743 22.3953 8.9581
427 1 Ar 26.8743 22.3953 13.4372
428 1 Ar 26.8743 22.3953 17.9162
429 1 Ar 26.8743 22.3953 22.3953
430 1 Ar 26.8743 22.3953 26.8743
431 1 Ar 26.8743 22.3953 31.3534
432 1 Ar 26.8743 26.8743 0
433 1 Ar 26.8743 26.8743 4.47905
434 1 Ar 26.8743 26.8743 8.9581
435 1 Ar 26.8743 26.8743 13.4372
436 1 Ar 26.8743 26.8743 17.9162
437 1 Ar 26.8743 26.8743 22.3953
438 1 Ar 26.8743 26.8743 26.8743
439 1 Ar 26.8743 26.8743 31.3534
440 1 Ar 26.8743 31.3534 0
441 1 Ar 26.8743 31.3534 4.47905
442 1 Ar 26.8743 31.3534 8.9581
443 1 Ar 26.8743 31.3534 13.4372
444 1 Ar 26.8743 31.3534 17.9162
445 1 Ar 26.8743 31.3534 22.3953
446 1 Ar 26.8743 31.3534 26.8743
447 1 Ar 26.8743 31.3534 31.3534
448 1 Ar 31.3534 0 0
449 1 Ar 31.3534 0 4.47905
450 1 Ar 31.3534 0 8.9581
451 1 Ar 31.3534 0 13.4372
452 1 Ar 31.3534 0 17.9162
453 1 Ar 31.3534 0 22.3953
454 1 Ar 31.3534 0 26.8743
455 1 Ar 31.3534 0 31.3534
456 1 Ar 31.3534 4.47905 0
457 1 Ar 31.3534 4.47905 4.47905
458 1 Ar 31.3534 4.47905 8.9581
459 1 Ar 31.3534 4.47905 13.4372
460 1 Ar 31.3534 4.47905 17.9162
461 1 Ar 31.3534 4.47905 22.3953
462 1 Ar 31.3534 4.47905 26.8743
463 1 Ar 31.3534 4.47905 31.3534
464 1 Ar 31.3534 8.9581 0
465 1 Ar 31.3534 8.9581 4.47905
466 1 Ar 31.3534 8.9581 8.9581
467 1 Ar 31.3534 8.9581 13.4372
468 1 Ar 31.3534 8.9581 17.9162
469 1 Ar 31.3534 8.9581 22.3953
470 1 Ar 31.3534 8.9581 26.8743
471 1 Ar 31.3534 8.9581 31.3534
472 1 Ar 31.3534 13.4372 0
473 1 Ar 31.3534 13.4372 4.47905
474 1 Ar 31.3534 13.4372 8.9581
475 1 Ar 31.3534 13.4372 13.4372
476 1 Ar 31.3534 13.4372 17.9162
477 1 Ar 31.3534 13.4372 22.3953
478 1 Ar 31.3534 13.4372 26.8743
479 1 Ar 31.3534 13.4372 31.3534
480 1 Ar 31.3534 17.9162 0
481 1 Ar 31.3534 17.9162 4.47905
482 1 Ar 31.3534 17.9162 8.9581
483 1 Ar 31.3534 17.9162 13.4372
484 1 Ar 31.3534 17.9162 17.9162
485 1 Ar 31.3534 17.9162 22.3953
486 1 Ar 31.3534 17.9162 26.8743
487 1 Ar 31.3534 17.9162 31.3534
488 1 Ar 31.3534 22.3953 0
489 1 Ar 31.3534 22.3953 4.47905
490 1 Ar 31.3534 22.3953 8.9581
491 1 Ar 31.3534 22.3953 13.4372
492 1 Ar 31.3534 22.3953 17.9162
493 1 Ar 31.3534 22.3953 22.3953
494 1 Ar 31.3534 22.3953 26.8743
495 1 Ar 31.3534 22.3953 31.3534
496 1 Ar 31.3534 26.8743 0
497 1 Ar 31.3534 26.8743 4.47905
498 1 Ar 31.3534 26.8743 8.9581
499 1 Ar 31.3534 26.8743 13.4372
ITEM: TIMESTEP
19999
ITEM: NUMBER OF ATOMS
500
ITEM: BOX BOUNDS pp pp pp
0 40.3115
0 40.3115
0 40.3115
ITEM: ATOMS id type element xu yu zu
0 1 Ar 0.773489 39.756 38.2721
1 1 Ar 4.19752 36.5544 10.9567
2 1 Ar 38.7037 0.835863 14.5961
3 1 Ar 1.85246 1.99401 14.5104
4 1 Ar 39.6099 3.583 16.9271
5 1 Ar 34.958 33.4589 21.8993
6 1 Ar 8.02404 35.9983 31.157
7 1 Ar 7.69714 28.3491 37.7875
8 1 Ar 36.7373 3.72764 39.7924
9 1 Ar 6.94231 34.969 9.35586
10 1 Ar 35.8176 3.96197 3.64413
11 1 Ar 0.602481 5.43779 14.1177
12 1 Ar 34.3236 7.44771 22.1293
13 1 Ar 31.4817 4.37177 22.0049
14 1 Ar 39.9742 4.35149 24.9968
15 1 Ar 36.4344 3.33597 26.9506
16 1 Ar 1.50501 6.87013 38.1827
17 1 Ar 36.4073 8.33816 2.43104
18 1 Ar 36.2828 3.48008 13.7314
19 1 Ar 38.5337 7.57684 11.6552
20 1 Ar 6.54738 11.0918 14.3918
21 1 Ar 1.4472 7.06823 23.5213
22 1 Ar 39.4808 8.43943 28.8227
23 1 Ar 2.18128 8.81539 31.72
24 1 Ar 38.5203 18.6652 0.875477
25 1 Ar 3.12048 16.1921 2.23532
26 1 Ar 1.70984 12.4329 7.03623
27 1 Ar 37.691 12.3038 11.7766
28 1 Ar 31.0894 12.8598 9.27428
29 1 Ar 11.1661 3.2033 27.3161
30 1 Ar 1.37994 13.38 31.1322
31 1 Ar 38.122 18.2651 36.2968
32 1 Ar 36.4782 23.3991 36.7038
33 1 Ar 0.222383 17.4841 5.92768
34 1 Ar 3.4175 21.3735 12.8443
35 1 Ar 1.33598 20.0519 10.0211
36 1 Ar 2.39173 26.9404 15.6944
37 1 Ar 33.5459 13.7677 15.1765
38 1 Ar 1.4098 8.13165 19.1833
39 1 Ar 1.1093 17.7347 26.676
40 1 Ar 0.817274 22.8801 1.27832
41 1 Ar 0.801189 20.5913 4.27851
42 1 Ar 38.5692 29.5249 8.76826
43 1 Ar 37.1555 36.3842 16.61
44 1 Ar 37.9323 12.321 21.4348
45 1 Ar 0.0561355 15.6297 18.3383
46 1 Ar 33.4576 23.4517 34.8949
47 1 Ar 36.8076 16.0413 29.7385
48 1 Ar 1.28327 30.3539 0.372422
49 1 Ar 19.8317 16.7451 21.4994
50 1 Ar 29.8018 31.4704 39.8629
51 1 Ar 24.834 31.3402 19.8224
52 1 Ar 39.6356 29.7033 21.0534
53 1 Ar 35.8514 29.2926 21.4745
54 1 Ar 3.35743 20.8235 27.8822
55 1 Ar 0.259369 24.5829 30.7783
56 1 Ar 38.5432 39.1231 27.8524
57 1 Ar 35.3572 34.0225 2.24289
58 1 Ar 5.55981 32.9214 14.7633
59 1 Ar 29.9589 33.5317 14.4505
60 1 Ar 0.18128 24.7831 13.8845
61 1 Ar 4.65094 31.4441 24.6505
62 1 Ar 37.0365 32.6925 25.1003
63 1 Ar 7.63004 22.7733 37.9866
64 1 Ar 5.70654 40.201 1.09807
65 1 Ar 4.88857 36.6689 6.31657
66 1 Ar 5.879 2.04261 4.39354
67 1 Ar 3.75451 1.39146 11.1153
68 1 Ar 7.077 36.9985 21.342
69 1 Ar 6.2827 33.8265 28.371
70 1 Ar 8.83953 4.01339 15.4743
71 1 Ar 6.02213 0.427244 26.999
72 1 Ar 3.3618 37.174 29.0925
73 1 Ar 1.45894 7.78163 6.09266
74 1 Ar 1.47086 5.1848 9.25498
75 1 Ar 3.71914 5.78517 12.2808
76 1 Ar 5.24199 0.131338 15.37
77 1 Ar 5.20373 8.16904 27.5522
78 1 Ar 4.24605 3.86865 28.7996
79 1 Ar 1.41988 0.68372 33.3535
80 1 Ar 7.71616 5.98243 39.5688
81 1 Ar 3.12321 9.85358 3.6892
82 1 Ar 36.5253 10.2827 6.99631
83 1 Ar 0.417917 10.2731 12.9576
84 1 Ar 3.14894 9.33297 15.0186
85 1 Ar 16.4381 8.76227 37.2039
86 1 Ar 7.71534 4.5252 28.2552
87 1 Ar 1.07211 4.3592 32.6927
88 1 Ar 5.85812 12.2711 1.58572
89 1 Ar 38.0741 16.7144 9.50878
90 1 Ar 10.6012 12.3517 5.25163
91 1 Ar 9.7257 9.73679 11.3564
92 1 Ar 5.44059 14.1709 16.5838
93 1 Ar 7.63202 11.5563 18.8155
94 1 Ar 5.42327 13.8944 25.1131
95 1 Ar 3.40489 17.2051 6.82839
96 1 Ar 2.80268 18.8659 35.6944
97 1 Ar 4.69136 11.2539 8.96536
98 1 Ar 4.77392 18.6035 10.4651
99 1 Ar 1.53821 16.431 12.5039
100 1 Ar 7.42558 13.996 8.78548
101 1 Ar 4.59493 3.11421 8.33184
102 1 Ar 6.26025 17.9709 26.2859
103 1 Ar 6.55503 9.94529 32.188
104 1 Ar 5.26759 18.5709 3.55116
105 1 Ar 1.43748 22.3329 7.2764
106 1 Ar 4.29982 22.4181 9.44914
107 1 Ar 5.38162 23.8576 13.8354
108 1 Ar 5.52249 18.4894 14.8724
109 1 Ar 2.57037 17.4216 16.4088
110 1 Ar 6.54901 21.4926 25.7136
111 1 Ar 7.19484 22.3705 30.0421
112 1 Ar 27.7309 29.0937 2.02706
113 1 Ar 6.57575 25.9789 5.95928
114 1 Ar 5.36846 26.3987 9.66663
115 1 Ar 3.34537 28.1199 11.9588
116 1 Ar 8.58546 36.9739 12.2653
117 1 Ar 0.712298 26.5227 20.1116
118 1 Ar 5.98401 24.8839 27.6888
119 1 Ar 4.50602 32.3841 31.1035
120 1 Ar 3.68848 31.8028 5.74296
121 1 Ar 2.47365 28.8322 7.18503
122 1 Ar 7.31332 33.262 5.99867
123 1 Ar 5.60735 30.0748 9.78527
124 1 Ar 2.29806 32.4705 16.2544
125 1 Ar 1.3621 27.8063 23.7045
126 1 Ar 2.84703 28.6272 26.7788
127 1 Ar 10.9171 0.107267 38.5868
128 1 Ar 9.70129 0.784254 1.54541
129 1 Ar 9.95836 33.5941 11.3786
130 1 Ar 8.87706 1.73925 9.23335
131 1 Ar 8.37933 0.141626 12.2895
132 1 Ar 9.39201 39.9859 15.4285
133 1 Ar 2.30636 1.75512 19.1544
134 1 Ar 10.8955 0.723826 21.2016
135 1 Ar 8.91947 38.2157 27.8657
136 1 Ar 7.34761 7.07171 35.8016
137 1 Ar 9.97749 4.50709 5.43194
138 1 Ar 20.1042 17.2932 10.1313
139 1 Ar 14.8382 7.09457 4.94087
140 1 Ar 11.7789 2.94474 17.2841
141 1 Ar 14.0466 5.44711 19.0445
142 1 Ar 9.33858 8.51955 27.8212
143 1 Ar 13.0316 1.03029 31.4049
144 1 Ar 14.0623 20.0708 26.7866
145 1 Ar 7.9154 7.38755 2.8129
146 1 Ar 9.51027 8.69501 6.29054
147 1 Ar 13.4085 7.3834 12.7038
148 1 Ar 7.11458 7.43697 16.4387
149 1 Ar 7.51284 7.91233 20.4793
150 1 Ar 10.6567 8.35174 24.2218
151 1 Ar 10.4744 11.5802 30.2773
152 1 Ar 10.2198 15.1253 36.734
153 1 Ar 7.07407 11.3145 5.04384
154 1 Ar 8.66309 13.3609 11.9739
155 1 Ar 3.66131 13.1813 13.8118
156 1 Ar 9.33341 13.5852 24.1771
157 1 Ar 6.82903 9.45265 24.63
158 1 Ar 8.26856 14.3099 27.5898
159 1 Ar 7.8097 13.3716 34.0991
160 1 Ar 9.60614 16.0342 0.637841
161 1 Ar 8.80449 15.3431 4.48791
162 1 Ar 9.1383 18.2514 8.74532
163 1 Ar 9.94394 20.1316 15.7174
164 1 Ar 5.96295 16.7083 19.8145
165 1 Ar 7.76117 16.6572 23.115
166 1 Ar 9.88525 17.4743 26.1257
167 1 Ar 9.464 17.8315 33.5401
168 1 Ar 25.1362 24.335 8.91481
169 1 Ar 6.99181 20.1309 6.42457
170 1 Ar 10.2682 26.089 10.4134
171 1 Ar 9.13435 22.9851 13.2004
172 1 Ar 5.53287 20.8389 20.019
173 1 Ar 11.5536 19.577 18.8549
174 1 Ar 10.7243 21.5206 30.3501
175 1 Ar 8.71165 23.794 34.9654
176 1 Ar 10.9495 27.8067 39.475
177 1 Ar 8.02982 29.2558 2.21601
178 1 Ar 11.8964 29.36 10.4927
179 1 Ar 8.88832 30.2069 12.4162
180 1 Ar 8.32834 27.093 15.3666
181 1 Ar 7.09523 23.0638 22.6312
182 1 Ar 12.3253 26.0486 31.0207
183 1 Ar 6.92481 30.0518 27.9057
184 1 Ar 10.684 33.0646 37.0184
185 1 Ar 8.91789 29.9281 6.34066
186 1 Ar 9.36527 38.0634 8.98607
187 1 Ar 14.9754 33.2569 12.2708
188 1 Ar 5.64072 29.4757 14.9469
189 1 Ar 7.43781 33.7503 22.8244
190 1 Ar 8.48001 30.6991 24.7786
191 1 Ar 11.645 33.8485 31.9835
192 1 Ar 16.3606 0.86288 38.4168
193 1 Ar 16.0239 2.19099 2.07946
194 1 Ar 13.1382 38.1457 36.4399
195 1 Ar 11.5486 1.35382 12.962
196 1 Ar 28.8647 25.0232 15.7831
197 1 Ar 22.4406 8.57274 20.4059
198 1 Ar 14.3885 39.7121 25.8222
199 1 Ar 9.91794 0.671539 35.0067
200 1 Ar 14.8022 5.95641 0.146913
201 1 Ar 14.5663 32.0079 4.64678
202 1 Ar 15.6617 1.1213 7.74766
203 1 Ar 14.811 0.732213 18.9271
204 1 Ar 12.913 6.81895 15.931
205 1 Ar 13.4864 4.60024 22.8351
206 1 Ar 9.5033 1.56083 30.3029
207 1 Ar 16.8509 2.60546 32.7916
208 1 Ar 10.8152 7.47279 0.929426
209 1 Ar 15.3266 8.76488 7.8934
210 1 Ar 15.0379 11.0014 11.1035
211 1 Ar 10.6904 9.47829 16.5541
212 1 Ar 11.8867 8.34469 19.8422
213 1 Ar 15.0196 10.9751 20.6012
214 1 Ar 14.5552 8.67766 23.4776
215 1 Ar 16.1883 6.71076 32.611
216 1 Ar 4.79304 8.46672 40.2931
217 1 Ar 17.3571 17.8018 4.65435
218 1 Ar 12.7046 12.731 8.71188
219 1 Ar 14.2232 15.1778 12.2514
220 1 Ar 13.894 14.0463 16.7068
221 1 Ar 10.6082 11.2177 21.2546
222 1 Ar 13.2581 15.7593 26.115
223 1 Ar 10.1603 15.311 31.0092
224 1 Ar 15.3014 20.7815 2.22226
225 1 Ar 12.8879 19.7004 5.69373
226 1 Ar 13.1305 17.103 8.47405
227 1 Ar 10.9832 18.1009 12.8314
228 1 Ar 9.70297 16.565 19.1766
229 1 Ar 11.591 16.2617 22.4622
230 1 Ar 21.5418 14.6562 25.2121
231 1 Ar 12.0586 18.0014 29.4778
232 1 Ar 12.7196 27.8253 35.9344
233 1 Ar 13.736 15.079 5.57639
234 1 Ar 13.7399 20.8802 10.2673
235 1 Ar 12.5776 22.7556 13.9277
236 1 Ar 15.6885 22.4058 14.4328
237 1 Ar 5.73107 26.718 21.105
238 1 Ar 12.6627 25.5497 26.4436
239 1 Ar 12.8786 21.7612 33.5801
240 1 Ar 14.4277 22.3979 39.695
241 1 Ar 9.56607 24.2304 4.6295
242 1 Ar 12.2285 27.8195 6.708
243 1 Ar 15.2373 25.8041 13.7468
244 1 Ar 12.9767 25.3301 20.9276
245 1 Ar 16.2873 27.0225 20.1692
246 1 Ar 10.325 21.2683 26.7737
247 1 Ar 15.8363 28.5852 32.4999
248 1 Ar 21.8003 30.6041 35.3941
249 1 Ar 15.4394 35.6267 3.58303
250 1 Ar 13.3662 32.5473 9.44607
251 1 Ar 15.1961 39.7656 12.8547
252 1 Ar 27.2758 34.1183 9.62727
253 1 Ar 11.2627 37.9814 32.7803
254 1 Ar 16.1767 29.6678 38.3829
255 1 Ar 18.6735 30.7913 33.593
256 1 Ar 18.2322 35.7528 39.5017
257 1 Ar 19.1864 3.48353 3.77126
258 1 Ar 18.8022 39.0263 8.7497
259 1 Ar 28.1984 37.7221 10.7125
260 1 Ar 17.4584 37.52 15.9559
261 1 Ar 16.8586 40.2523 22.5465
262 1 Ar 17.5956 1.73579 25.6541
263 1 Ar 19.992 39.6498 39.0956
264 1 Ar 19.1562 4.7582 39.5234
265 1 Ar 17.3449 6.64024 2.38615
266 1 Ar 14.6061 2.1836 10.977
267 1 Ar 14.0962 3.45536 14.5567
268 1 Ar 20.8543 2.99855 31.4971
269 1 Ar 21.4668 2.47708 23.1307
270 1 Ar 14.7302 5.25485 29.23
271 1 Ar 19.5683 4.72206 35.9799
272 1 Ar 10.7157 6.27095 31.1429
273 1 Ar 20.3416 10.4489 7.2147
274 1 Ar 18.8872 11.5954 11.4544
275 1 Ar 18.4514 8.89271 13.4881
276 1 Ar 17.8218 8.17479 17.4243
277 1 Ar 17.8309 6.60567 25.917
278 1 Ar 18.0526 10.9671 27.3934
279 1 Ar 20.0992 6.6959 32.6842
280 1 Ar 27.8658 14.1288 40.1981
281 1 Ar 16.7612 13.246 5.81433
282 1 Ar 18.9066 13.9405 9.22921
283 1 Ar 18.6995 14.9803 13.0686
284 1 Ar 15.8936 12.4154 14.3749
285 1 Ar 16.9031 22.1007 23.7443
286 1 Ar 16.7562 12.927 24.8862
287 1 Ar 17.1376 13.1739 29.879
288 1 Ar 19.8305 17.1413 37.3183
289 1 Ar 13.6255 5.69013 36.2982
290 1 Ar 16.6023 16.3944 7.86036
291 1 Ar 17.5087 18.5864 12.145
292 1 Ar 19.3473 20.352 16.5973
293 1 Ar 16.911 18.6144 24.0374
294 1 Ar 20.748 19.1204 23.6713
295 1 Ar 18.8504 15.7423 33.486
296 1 Ar 16.1479 25.6131 37.6146
297 1 Ar 28.7366 23.4782 12.7742
298 1 Ar 15.8253 19.734 7.8091
299 1 Ar 16.9628 21.6547 10.8556
300 1 Ar 16.4656 23.8046 18.3364
301 1 Ar 16.1681 26.7792 24.2807
302 1 Ar 19.671 22.8728 25.7793
303 1 Ar 14.1279 22.0404 29.5026
304 1 Ar 16.1213 24.3497 2.55503
305 1 Ar 17.5613 28.6455 6.19703
306 1 Ar 18.3652 26.3959 10.3467
307 1 Ar 21.3405 27.9 16.8978
308 1 Ar 22.994 31.6539 23.3243
309 1 Ar 23.3026 22.61 14.7197
310 1 Ar 16.9206 27.9626 28.4574
311 1 Ar 16.8504 24.4595 30.0935
312 1 Ar 7.27715 20.993 10.684
313 1 Ar 19.9415 32.4393 6.14697
314 1 Ar 15.456 29.2136 10.2728
315 1 Ar 17.5852 33.6594 17.1738
316 1 Ar 17.8223 27.9773 15.2516
317 1 Ar 17.0396 36.479 12.2332
318 1 Ar 16.2994 33.6528 30.4844
319 1 Ar 21.8641 29.7266 32.4714
320 1 Ar 23.8823 31.6953 1.36921
321 1 Ar 22.5136 1.2437 7.21176
322 1 Ar 17.8061 39.9989 4.20488
323 1 Ar 24.4098 39.6396 14.049
324 1 Ar 24.1463 5.02159 19.842
325 1 Ar 21.9454 36.6508 23.2647
326 1 Ar 22.2859 34.1996 34.0614
327 1 Ar 21.5622 38.0074 30.5283
328 1 Ar 27.2233 2.58795 3.47193
329 1 Ar 23.3135 4.69844 5.4436
330 1 Ar 23.5271 4.45874 9.30149
331 1 Ar 22.5536 4.758 13.5782
332 1 Ar 16.2644 34.6338 7.12201
333 1 Ar 19.7562 39.1311 20.1566
334 1 Ar 21.8131 5.73813 27.8099
335 1 Ar 18.5549 5.81562 29.3842
336 1 Ar 17.665 10.0936 31.8977
337 1 Ar 20.733 7.27817 5.74769
338 1 Ar 23.3291 7.77373 8.41035
339 1 Ar 20.4947 8.31498 10.6007
340 1 Ar 28.3033 8.92416 13.475
341 1 Ar 24.7635 8.82764 15.2429
342 1 Ar 20.9603 9.11031 25.064
343 1 Ar 24.8033 8.22293 29.4313
344 1 Ar 20.7078 8.1033 36.0865
345 1 Ar 23.9701 11.0826 5.92298
346 1 Ar 20.2605 16.9972 6.34656
347 1 Ar 23.685 14.4477 16.5244
348 1 Ar 18.9284 13.1783 17.9772
349 1 Ar 23.27 15.0631 21.9428
350 1 Ar 23.9076 11.2515 24.8939
351 1 Ar 16.8717 16.7984 28.7979
352 1 Ar 11.326 21.6843 36.9896
353 1 Ar 21.3966 22.9629 8.98689
354 1 Ar 25.0681 19.8867 6.88325
355 1 Ar 23.1312 15.4872 11.278
356 1 Ar 21.906 17.1335 18.5177
357 1 Ar 24.282 19.6431 21.19
358 1 Ar 17.2777 21.2348 27.6665
359 1 Ar 21.0492 16.3091 30.3579
360 1 Ar 16.0268 14.7642 36.3358
361 1 Ar 27.3748 27.8481 39.4381
362 1 Ar 20.5234 20.4961 5.95704
363 1 Ar 26.4627 20.3286 11.443
364 1 Ar 20.8492 20.9763 11.96
365 1 Ar 21.4779 22.1668 22.3505
366 1 Ar 24.0343 31.6682 16.1217
367 1 Ar 17.0736 31.3164 25.1579
368 1 Ar 18.793 26.1522 0.0733848
369 1 Ar 26.2269 29.5754 36.7564
370 1 Ar 22.7121 27.383 9.48088
371 1 Ar 21.3337 26.4549 13.6139
372 1 Ar 21.391 21.0994 18.99
373 1 Ar 26.7989 32.2331 23.5365
374 1 Ar 30.5391 21.3429 27.6428
375 1 Ar 13.181 31.7567 34.7213
376 1 Ar 28.1267 34.5093 37.9434
377 1 Ar 18.8625 29.3661 2.61918
378 1 Ar 23.7581 31.8042 6.15009
379 1 Ar 20.9134 30.5938 13.7227
380 1 Ar 20.7705 30.7191 19.4886
381 1 Ar 16.9472 35.9811 19.7491
382 1 Ar 19.0242 28.588 23.0596
383 1 Ar 17.9053 37.078 31.3278
384 1 Ar 29.1826 0.313626 31.9147
385 1 Ar 26.5294 0.207917 8.71179
386 1 Ar 27.7686 1.59004 11.7795
387 1 Ar 31.9431 33.0456 17.8329
388 1 Ar 27.769 39.2559 15.8241
389 1 Ar 26.3888 39.1198 19.317
390 1 Ar 25.7798 4.86464 29.8661
391 1 Ar 32.4228 35.6975 27.0281
392 1 Ar 12.5565 38.4454 4.86792
393 1 Ar 28.953 6.51932 5.40166
394 1 Ar 26.5255 4.70428 6.76173
395 1 Ar 28.5475 5.10251 13.3176
396 1 Ar 30.1276 7.76814 17.4338
397 1 Ar 25.8916 1.03581 22.2255
398 1 Ar 24.7761 4.96301 24.2581
399 1 Ar 25.8308 39.3733 31.6351
400 1 Ar 1.19475 16.5748 33.7326
401 1 Ar 28.3612 10.5178 5.63406
402 1 Ar 28.6206 9.69169 9.09435
403 1 Ar 25.3993 7.6502 11.723
404 1 Ar 24.3972 11.2443 21.3528
405 1 Ar 28.1269 8.07681 23.1393
406 1 Ar 26.6029 8.19707 26.4825
407 1 Ar 22.7534 9.65006 32.3278
408 1 Ar 33.3089 10.5448 32.2647
409 1 Ar 24.6958 16.6836 5.78359
410 1 Ar 26.7942 12.6635 10.8293
411 1 Ar 23.7649 12.1678 13.0092
412 1 Ar 21.4115 17.7014 13.9453
413 1 Ar 31.3577 10.1145 23.3626
414 1 Ar 27.0772 14.4383 27.6028
415 1 Ar 26.302 11.5923 29.5229
416 1 Ar 20.7598 27.5149 6.52599
417 1 Ar 29.2499 17.5136 7.44695
418 1 Ar 37.5369 7.28799 16.297
419 1 Ar 26.0456 16.8535 9.35367
420 1 Ar 27.3823 18.0004 19.4493
421 1 Ar 33.9496 20.8824 22.7741
422 1 Ar 23.1016 18.9797 28.5994
423 1 Ar 22.0169 14.6591 34.2213
424 1 Ar 20.1063 23.6826 35.9871
425 1 Ar 27.5308 22.9725 6.60551
426 1 Ar 31.5103 24.8194 8.02281
427 1 Ar 26.3451 20.6482 15.9812
428 1 Ar 26.8824 22.1436 18.9807
429 1 Ar 1.56932 33.6909 2.59181
430 1 Ar 26.1537 23.6673 22.5286
431 1 Ar 27.571 18.9317 24.1058
432 1 Ar 25.322 26.3536 3.00244
433 1 Ar 28.6691 25.8762 5.25616
434 1 Ar 25.8041 28.8782 7.35669
435 1 Ar 25.2501 25.2321 12.2066
436 1 Ar 31.6637 27.8415 17.947
437 1 Ar 23.2937 25.9786 23.1331
438 1 Ar 25.9765 28.8584 24.4213
439 1 Ar 34.4117 26.6634 26.3828
440 1 Ar 23.4338 38.2155 34.7086
441 1 Ar 32.5934 32.97 36.8833
442 1 Ar 24.0518 28.7955 13.9609
443 1 Ar 32.3913 5.87175 7.69569
444 1 Ar 33.1522 30.9971 24.7127
445 1 Ar 36.7442 24.7392 32.6101
446 1 Ar 25.839 35.0918 16.7023
447 1 Ar 31.5736 36.8173 34.9001
448 1 Ar 32.362 36.3578 1.18965
449 1 Ar 28.252 38.2342 39.5343
450 1 Ar 38.7394 5.76837 4.5914
451 1 Ar 34.119 36.5614 9.21359