ITEM: TIMESTEP
-1
ITEM: NUMBER OF ATOMS
500
ITEM: BOX BOUNDS pp pp pp
0 31.9952
0 31.9952
0 31.9952
ITEM: ATOMS id type element xu yu zu
0 1 Ar 0 0 0
1 1 Ar 0 0 3.55502
2 1 Ar 0 0 7.11005
3 1 Ar 0 0 10.6651
4 1 Ar 0 0 14.2201
5 1 Ar 0 0 17.7751
6 1 Ar 0 0 21.3301
7 1 Ar 0 0 24.8852
8 1 Ar 0 3.55502 0
9 1 Ar 0 3.55502 3.55502
10 1 Ar 0 3.55502 7.11005
11 1 Ar 0 3.55502 10.6651
12 1 Ar 0 3.55502 14.2201
13 1 Ar 0 3.55502 17.7751
14 1 Ar 0 3.55502 21.3301
15 1 Ar 0 3.55502 24.8852
16 1 Ar 0 7.11005 0
17 1 Ar 0 7.11005 3.55502
18 1 Ar 0 7.11005 7.11005
19 1 Ar 0 7.11005 10.6651
20 1 Ar 0 7.11005 14.2201
21 1 Ar 0 7.11005 17.7751
22 1 Ar 0 7.11005 21.3301
23 1 Ar 0 7.11005 24.8852
24 1 Ar 0 10.6651 0
25 1 Ar 0 10.6651 3.55502
26 1 Ar 0 10.6651 7.11005
27 1 Ar 0 10.6651 10.6651
28 1 Ar 0 10.6651 14.2201
29 1 Ar 0 10.6651 17.7751
30 1 Ar 0 10.6651 21.3301
31 1 Ar 0 10.6651 24.8852
32 1 Ar 0 14.2201 0
33 1 Ar 0 14.2201 3.55502
34 1 Ar 0 14.2201 7.11005
35 1 Ar 0 14.2201 10.6651
36 1 Ar 0 14.2201 14.2201
37 1 Ar 0 14.2201 17.7751
38 1 Ar 0 14.2201 21.3301
39 1 Ar 0 14.2201 24.8852
40 1 Ar 0 17.7751 0
41 1 Ar 0 17.7751 3.55502
42 1 Ar 0 17.7751 7.11005
43 1 Ar 0 17.7751 10.6651
44 1 Ar 0 17.7751 14.2201
45 1 Ar 0 17.7751 17.7751
46 1 Ar 0 17.7751 21.3301
47 1 Ar 0 17.7751 24.8852
48 1 Ar 0 21.3301 0
49 1 Ar 0 21.3301 3.55502
50 1 Ar 0 21.3301 7.11005
51 1 Ar 0 21.3301 10.6651
52 1 Ar 0 21.3301 14.2201
53 1 Ar 0 21.3301 17.7751
54 1 Ar 0 21.3301 21.3301
55 1 Ar 0 21.3301 24.8852
56 1 Ar 0 24.8852 0
57 1 Ar 0 24.8852 3.55502
58 1 Ar 0 24.8852 7.11005
59 1 Ar 0 24.8852 10.6651
60 1 Ar 0 24.8852 14.2201
61 1 Ar 0 24.8852 17.7751
62 1 Ar 0 24.8852 21.3301
63 1 Ar 0 24.8852 24.8852
64 1 Ar 3.55502 0 0
65 1 Ar 3.55502 0 3.55502
66 1 Ar 3.55502 0 7.11005
67 1 Ar 3.55502 0 10.6651
68 1 Ar 3.55502 0 14.2201
69 1 Ar 3.55502 0 17.7751
70 1 Ar 3.55502 0 21.3301
71 1 Ar 3.55502 0 24.8852
72 1 Ar 3.55502 3.55502 0
73 1 Ar 3.55502 3.55502 3.55502
74 1 Ar 3.55502 3.55502 7.11005
75 1 Ar 3.55502 3.55502 10.6651
76 1 Ar 3.55502 3.55502 14.2201
77 1 Ar 3.55502 3.55502 17.7751
78 1 Ar 3.55502 3.55502 21.3301
79 1 Ar 3.55502 3.55502 24.8852
80 1 Ar 3.55502 7.11005 0
81 1 Ar 3.55502 7.11005 3.55502
82 1 Ar 3.55502 7.11005 7.11005
83 1 Ar 3.55502 7.11005 10.6651
84 1 Ar 3.55502 7.11005 14.2201
85 1 Ar 3.55502 7.11005 17.7751
86 1 Ar 3.55502 7.11005 21.3301
87 1 Ar 3.55502 7.11005 24.8852
88 1 Ar 3.55502 10.6651 0
89 1 Ar 3.55502 10.6651 3.55502
90 1 Ar 3.55502 10.6651 7.11005
91 1 Ar 3.55502 10.6651 10.6651
92 1 Ar 3.55502 10.6651 14.2201
93 1 Ar 3.55502 10.6651 17.7751
94 1 Ar 3.55502 10.6651 21.3301
95 1 Ar 3.55502 10.6651 24.8852
96 1 Ar 3.55502 14.2201 0
97 1 Ar 3.55502 14.2201 3.55502
98 1 Ar 3.55502 14.2201 7.11005
99 1 Ar 3.55502 14.2201 10.6651
100 1 Ar 3.55502 14.2201 14.2201
101 1 Ar 3.55502 14.2201 17.7751
102 1 Ar 3.55502 14.2201 21.3301
103 1 Ar 3.55502 14.2201 24.8852
104 1 Ar 3.55502 17.7751 0
105 1 Ar 3.55502 17.7751 3.55502
106 1 Ar 3.55502 17.7751 7.11005
107 1 Ar 3.55502 17.7751 10.6651
108 1 Ar 3.55502 17.7751 14.2201
109 1 Ar 3.55502 17.7751 17.7751
110 1 Ar 3.55502 17.7751 21.3301
111 1 Ar 3.55502 17.7751 24.8852
112 1 Ar 3.55502 21.3301 0
113 1 Ar 3.55502 21.3301 3.55502
114 1 Ar 3.55502 21.3301 7.11005
115 1 Ar 3.55502 21.3301 10.6651
116 1 Ar 3.55502 21.3301 14.2201
117 1 Ar 3.55502 21.3301 17.7751
118 1 Ar 3.55502 21.3301 21.3301
119 1 Ar 3.55502 21.3301 24.8852
120 1 Ar 3.55502 24.8852 0
121 1 Ar 3.55502 24.8852 3.55502
122 1 Ar 3.55502 24.8852 7.11005
123 1 Ar 3.55502 24.8852 10.6651
124 1 Ar 3.55502 24.8852 14.2201
125 1 Ar 3.55502 24.8852 17.7751
126 1 Ar 3.55502 24.8852 21.3301
127 1 Ar 3.55502 24.8852 24.8852
128 1 Ar 7.11005 0 0
129 1 Ar 7.11005 0 3.55502
130 1 Ar 7.11005 0 7.11005
131 1 Ar 7.11005 0 10.6651
132 1 Ar 7.11005 0 14.2201
133 1 Ar 7.11005 0 17.7751
134 1 Ar 7.11005 0 21.3301
135 1 Ar 7.11005 0 24.8852
136 1 Ar 7.11005 3.55502 0
137 1 Ar 7.11005 3.55502 3.55502
138 1 Ar 7.11005 3.55502 7.11005
139 1 Ar 7.11005 3.55502 10.6651
140 1 Ar 7.11005 3.55502 14.2201
141 1 Ar 7.11005 3.55502 17.7751
142 1 Ar 7.11005 3.55502 21.3301
143 1 Ar 7.11005 3.55502 24.8852
144 1 Ar 7.11005 7.11005 0
145 1 Ar 7.11005 7.11005 3.55502
146 1 Ar 7.11005 7.11005 7.11005
147 1 Ar 7.11005 7.11005 10.6651
148 1 Ar 7.11005 7.11005 14.2201
149 1 Ar 7.11005 7.11005 17.7751
150 1 Ar 7.11005 7.11005 21.3301
151 1 Ar 7.11005 7.11005 24.8852
152 1 Ar 7.11005 10.6651 0
153 1 Ar 7.11005 10.6651 3.55502
154 1 Ar 7.11005 10.6651 7.11005
155 1 Ar 7.11005 10.6651 10.6651
156 1 Ar 7.11005 10.6651 14.2201
157 1 Ar 7.11005 10.6651 17.7751
158 1 Ar 7.11005 10.6651 21.3301
159 1 Ar 7.11005 10.6651 24.8852
160 1 Ar 7.11005 14.2201 0
161 1 Ar 7.11005 14.2201 3.55502
162 1 Ar 7.11005 14.2201 7.11005
163 1 Ar 7.11005 14.2201 10.6651
164 1 Ar 7.11005 14.2201 14.2201
165 1 Ar 7.11005 14.2201 17.7751
166 1 Ar 7.11005 14.2201 21.3301
167 1 Ar 7.11005 14.2201 24.8852
168 1 Ar 7.11005 17.7751 0
169 1 Ar 7.11005 17.7751 3.55502
170 1 Ar 7.11005 17.7751 7.11005
171 1 Ar 7.11005 17.7751 10.6651
172 1 Ar 7.11005 17.7751 14.2201
173 1 Ar 7.11005 17.7751 17.7751
174 1 Ar 7.11005 17.7751 21.3301
175 1 Ar 7.11005 17.7751 24.8852
176 1 Ar 7.11005 21.3301 0
177 1 Ar 7.11005 21.3301 3.55502
178 1 Ar 7.11005 21.3301 7.11005
179 1 Ar 7.11005 21.3301 10.6651
180 1 Ar 7.11005 21.3301 14.2201
181 1 Ar 7.11005 21.3301 17.7751
182 1 Ar 7.11005 21.3301 21.3301
183 1 Ar 7.11005 21.3301 24.8852
184 1 Ar 7.11005 24.8852 0
185 1 Ar 7.11005 24.8852 3.55502
186 1 Ar 7.11005 24.8852 7.11005
187 1 Ar 7.11005 24.8852 10.6651
188 1 Ar 7.11005 24.8852 14.2201
189 1 Ar 7.11005 24.8852 17.7751
190 1 Ar 7.11005 24.8852 21.3301
191 1 Ar 7.11005 24.8852 24.8852
192 1 Ar 10.6651 0 0
193 1 Ar 10.6651 0 3.55502
194 1 Ar 10.6651 0 7.11005
195 1 Ar 10.6651 0 10.6651
196 1 Ar 10.6651 0 14.2201
197 1 Ar 10.6651 0 17.7751
198 1 Ar 10.6651 0 21.3301
199 1 Ar 10.6651 0 24.8852
200 1 Ar 10.6651 3.55502 0
201 1 Ar 10.6651 3.55502 3.55502
202 1 Ar 10.6651 3.55502 7.11005
203 1 Ar 10.6651 3.55502 10.6651
204 1 Ar 10.6651 3.55502 14.2201
205 1 Ar 10.6651 3.55502 17.7751
206 1 Ar 10.6651 3.55502 21.3301
207 1 Ar 10.6651 3.55502 24.8852
208 1 Ar 10.6651 7.11005 0
209 1 Ar 10.6651 7.11005 3.55502
210 1 Ar 10.6651 7.11005 7.11005
211 1 Ar 10.6651 7.11005 10.6651
212 1 Ar 10.6651 7.11005 14.2201
213 1 Ar 10.6651 7.11005 17.7751
214 1 Ar 10.6651 7.11005 21.3301
215 1 Ar 10.6651 7.11005 24.8852
216 1 Ar 10.6651 10.6651 0
217 1 Ar 10.6651 10.6651 3.55502
218 1 Ar 10.6651 10.6651 7.11005
219 1 Ar 10.6651 10.6651 10.6651
220 1 Ar 10.6651 10.6651 14.2201
221 1 Ar 10.6651 10.6651 17.7751
222 1 Ar 10.6651 10.6651 21.3301
223 1 Ar 10.6651 10.6651 24.8852
224 1 Ar 10.6651 14.2201 0
225 1 Ar 10.6651 14.2201 3.55502
226 1 Ar 10.6651 14.2201 7.11005
227 1 Ar 10.6651 14.2201 10.6651
228 1 Ar 10.6651 14.2201 14.2201
229 1 Ar 10.6651 14.2201 17.7751
230 1 Ar 10.6651 14.2201 21.3301
231 1 Ar 10.6651 14.2201 24.8852
232 1 Ar 10.6651 17.7751 0
233 1 Ar 10.6651 17.7751 3.55502
234 1 Ar 10.6651 17.7751 7.11005
235 1 Ar 10.6651 17.7751 10.6651
236 1 Ar 10.6651 17.7751 14.2201
237 1 Ar 10.6651 17.7751 17.7751
238 1 Ar 10.6651 17.7751 21.3301
239 1 Ar 10.6651 17.7751 24.8852
240 1 Ar 10.6651 21.3301 0
241 1 Ar 10.6651 21.3301 3.55502
242 1 Ar 10.6651 21.3301 7.11005
243 1 Ar 10.6651 21.3301 10.6651
244 1 Ar 10.6651 21.3301 14.2201
245 1 Ar 10.6651 21.3301 17.7751
246 1 Ar 10.6651 21.3301 21.3301
247 1 Ar 10.6651 21.3301 24.8852
248 1 Ar 10.6651 24.8852 0
249 1 Ar 10.6651 24.8852 3.55502
250 1 Ar 10.6651 24.8852 7.11005
251 1 Ar 10.6651 24.8852 10.6651
252 1 Ar 10.6651 24.8852 14.2201
253 1 Ar 10.6651 24.8852 17.7751
254 1 Ar 10.6651 24.8852 21.3301
255 1 Ar 10.6651 24.8852 24.8852
256 1 Ar 14.2201 0 0
257 1 Ar 14.2201 0 3.55502
258 1 Ar 14.2201 0 7.11005
259 1 Ar 14.2201 0 10.6651
260 1 Ar 14.2201 0 14.2201
261 1 Ar 14.2201 0 17.7751
262 1 Ar 14.2201 0 21.3301
263 1 Ar 14.2201 0 24.8852
264 1 Ar 14.2201 3.55502 0
265 1 Ar 14.2201 3.55502 3.55502
266 1 Ar 14.2201 3.55502 7.11005
267 1 Ar 14.2201 3.55502 10.6651
268 1 Ar 14.2201 3.55502 14.2201
269 1 Ar 14.2201 3.55502 17.7751
270 1 Ar 14.2201 3.55502 21.3301
271 1 Ar 14.2201 3.55502 24.8852
272 1 Ar 14.2201 7.11005 0
273 1 Ar 14.2201 7.11005 3.55502
274 1 Ar 14.2201 7.11005 7.11005
275 1 Ar 14.2201 7.11005 10.6651
276 1 Ar 14.2201 7.11005 14.2201
277 1 Ar 14.2201 7.11005 17.7751
278 1 Ar 14.2201 7.11005 21.3301
279 1 Ar 14.2201 7.11005 24.8852
280 1 Ar 14.2201 10.6651 0
281 1 Ar 14.2201 10.6651 3.55502
282 1 Ar 14.2201 10.6651 7.11005
283 1 Ar 14.2201 10.6651 10.6651
284 1 Ar 14.2201 10.6651 14.2201
285 1 Ar 14.2201 10.6651 17.7751
286 1 Ar 14.2201 10.6651 21.3301
287 1 Ar 14.2201 10.6651 24.8852
288 1 Ar 14.2201 14.2201 0
289 1 Ar 14.2201 14.2201 3.55502
290 1 Ar 14.2201 14.2201 7.11005
291 1 Ar 14.2201 14.2201 10.6651
292 1 Ar 14.2201 14.2201 14.2201
293 1 Ar 14.2201 14.2201 17.7751
294 1 Ar 14.2201 14.2201 21.3301
295 1 Ar 14.2201 14.2201 24.8852
296 1 Ar 14.2201 17.7751 0
297 1 Ar 14.2201 17.7751 3.55502
298 1 Ar 14.2201 17.7751 7.11005
299 1 Ar 14.2201 17.7751 10.6651
300 1 Ar 14.2201 17.7751 14.2201
301 1 Ar 14.2201 17.7751 17.7751
302 1 Ar 14.2201 17.7751 21.3301
303 1 Ar 14.2201 17.7751 24.8852
304 1 Ar 14.2201 21.3301 0
305 1 Ar 14.2201 21.3301 3.55502
306 1 Ar 14.2201 21.3301 7.11005
307 1 Ar 14.2201 21.3301 10.6651
308 1 Ar 14.2201 21.3301 14.2201
309 1 Ar 14.2201 21.3301 17.7751
310 1 Ar 14.2201 21.3301 21.3301
311 1 Ar 14.2201 21.3301 24.8852
312 1 Ar 14.2201 24.8852 0
313 1 Ar 14.2201 24.8852 3.55502
314 1 Ar 14.2201 24.8852 7.11005
315 1 Ar 14.2201 24.8852 10.6651
316 1 Ar 14.2201 24.8852 14.2201
317 1 Ar 14.2201 24.8852 17.7751
318 1 Ar 14.2201 24.8852 21.3301
319 1 Ar 14.2201 24.8852 24.8852
320 1 Ar 17.7751 0 0
321 1 Ar 17.7751 0 3.55502
322 1 Ar 17.7751 0 7.11005
323 1 Ar 17.7751 0 10.6651
324 1 Ar 17.7751 0 14.2201
325 1 Ar 17.7751 0 17.7751
326 1 Ar 17.7751 0 21.3301
327 1 Ar 17.7751 0 24.8852
328 1 Ar 17.7751 3.55502 0
329 1 Ar 17.7751 3.55502 3.55502
330 1 Ar 17.7751 3.55502 7.11005
331 1 Ar 17.7751 3.55502 10.6651
332 1 Ar 17.7751 3.55502 14.2201
333 1 Ar 17.7751 3.55502 17.7751
334 1 Ar 17.7751 3.55502 21.3301
335 1 Ar 17.7751 3.55502 24.8852
336 1 Ar 17.7751 7.11005 0
337 1 Ar 17.7751 7.11005 3.55502
338 1 Ar 17.7751 7.11005 7.11005
339 1 Ar 17.7751 7.11005 10.6651
340 1 Ar 17.7751 7.11005 14.2201
341 1 Ar 17.7751 7.11005 17.7751
342 1 Ar 17.7751 7.11005 21.3301
343 1 Ar 17.7751 7.11005 24.8852
344 1 Ar 17.7751 10.6651 0
345 1 Ar 17.7751 10.6651 3.55502
346 1 Ar 17.7751 10.6651 7.11005
347 1 Ar 17.7751 10.6651 10.6651
348 1 Ar 17.7751 10.6651 14.2201
349 1 Ar 17.7751 10.6651 17.7751
350 1 Ar 17.7751 10.6651 21.3301
351 1 Ar 17.7751 10.6651 24.8852
352 1 Ar 17.7751 14.2201 0
353 1 Ar 17.7751 14.2201 3.55502
354 1 Ar 17.7751 14.2201 7.11005
355 1 Ar 17.7751 14.2201 10.6651
356 1 Ar 17.7751 14.2201 14.2201
357 1 Ar 17.7751 14.2201 17.7751
358 1 Ar 17.7751 14.2201 21.3301
359 1 Ar 17.7751 14.2201 24.8852
360 1 Ar 17.7751 17.7751 0
361 1 Ar 17.7751 17.7751 3.55502
362 1 Ar 17.7751 17.7751 7.11005
363 1 Ar 17.7751 17.7751 10.6651
364 1 Ar 17.7751 17.7751 14.2201
365 1 Ar 17.7751 17.7751 17.7751
366 1 Ar 17.7751 17.7751 21.3301
367 1 Ar 17.7751 17.7751 24.8852
368 1 Ar 17.7751 21.3301 0
369 1 Ar 17.7751 21.3301 3.55502
370 1 Ar 17.7751 21.3301 7.11005
371 1 Ar 17.7751 21.3301 10.6651
372 1 Ar 17.7751 21.3301 14.2201
373 1 Ar 17.7751 21.3301 17.7751
374 1 Ar 17.7751 21.3301 21.3301
375 1 Ar 17.7751 21.3301 24.8852
376 1 Ar 17.7751 24.8852 0
377 1 Ar 17.7751 24.8852 3.55502
378 1 Ar 17.7751 24.8852 7.11005
379 1 Ar 17.7751 24.8852 10.6651
380 1 Ar 17.7751 24.8852 14.2201
381 1 Ar 17.7751 24.8852 17.7751
382 1 Ar 17.7751 24.8852 21.3301
383 1 Ar 17.7751 24.8852 24.8852
384 1 Ar 21.3301 0 0
385 1 Ar 21.3301 0 3.55502
386 1 Ar 21.3301 0 7.11005
387 1 Ar 21.3301 0 10.6651
388 1 Ar 21.3301 0 14.2201
389 1 Ar 21.3301 0 17.7751
390 1 Ar 21.3301 0 21.3301
391 1 Ar 21.3301 0 24.8852
392 1 Ar 21.3301 3.55502 0
393 1 Ar 21.3301 3.55502 3.55502
394 1 Ar 21.3301 3.55502 7.11005
395 1 Ar 21.3301 3.55502 10.6651
396 1 Ar 21.3301 3.55502 14.2201
397 1 Ar 21.3301 3.55502 17.7751
398 1 Ar 21.3301 3.55502 21.3301
399 1 Ar 21.3301 3.55502 24.8852
400 1 Ar 21.3301 7.11005 0
401 1 Ar 21.3301 7.11005 3.55502
402 1 Ar 21.3301 7.11005 7.11005
403 1 Ar 21.3301 7.11005 10.6651
404 1 Ar 21.3301 7.11005 14.2201
405 1 Ar 21.3301 7.11005 17.7751
406 1 Ar 21.3301 7.11005 21.3301
407 1 Ar 21.3301 7.11005 24.8852
408 1 Ar 21.3301 10.6651 0
409 1 Ar 21.3301 10.6651 3.55502
410 1 Ar 21.3301 10.6651 7.11005
411 1 Ar 21.3301 10.6651 10.6651
412 1 Ar 21.3301 10.6651 14.2201
413 1 Ar 21.3301 10.6651 17.7751
414 1 Ar 21.3301 10.6651 21.3301
415 1 Ar 21.3301 10.6651 24.8852
416 1 Ar 21.3301 14.2201 0
417 1 Ar 21.3301 14.2201 3.55502
418 1 Ar 21.3301 14.2201 7.11005
419 1 Ar 21.3301 14.2201 10.6651
420 1 Ar 21.3301 14.2201 14.2201
421 1 Ar 21.3301 14.2201 17.7751
422 1 Ar 21.3301 14.2201 21.3301
423 1 Ar 21.3301 14.2201 24.8852
424 1 Ar 21.3301 17.7751 0
425 1 Ar 21.3301 17.7751 3.55502
426 1 Ar 21.3301 17.7751 7.11005
427 1 Ar 21.3301 17.7751 10.6651
428 1 Ar 21.3301 17.7751 14.2201
429 1 Ar 21.3301 17.7751 17.7751
430 1 Ar 21.3301 17.7751 21.3301
431 1 Ar 21.3301 17.7751 24.8852
432 1 Ar 21.3301 21.3301 0
433 1 Ar 21.3301 21.3301 3.55502
434 1 Ar 21.3301 21.3301 7.11005
435 1 Ar 21.3301 21.3301 10.6651
436 1 Ar 21.3301 21.3301 14.2201
437 1 Ar 21.3301 21.3301 17.7751
438 1 Ar 21.3301 21.3301 21.3301
439 1 Ar 21.3301 21.3301 24.8852
440 1 Ar 21.3301 24.8852 0
441 1 Ar 21.3301 24.8852 3.55502
442 1 Ar 21.3301 24.8852 7.11005
443 1 Ar 21.3301 24.8852 10.6651
444 1 Ar 21.3301 24.8852 14.2201
445 1 Ar 21.3301 24.8852 17.7751
446 1 Ar 21.3301 24.8852 21.3301
447 1 Ar 21.3301 24.8852 24.8852
448 1 Ar 24.8852 0 0
449 1 Ar 24.8852 0 3.55502
450 1 Ar 24.8852 0 7.11005
451 1 Ar 24.8852 0 10.6651
452 1 Ar 24.8852 0 14.2201
453 1 Ar 24.8852 0 17.7751
454 1 Ar 24.8852 0 21.3301
455 1 Ar 24.8852 0 24.8852
456 1 Ar 24.8852 3.55502 0
457 1 Ar 24.8852 3.55502 3.55502
458 1 Ar 24.8852 3.55502 7.11005
459 1 Ar 24.8852 3.55502 10.6651
460 1 Ar 24.8852 3.55502 14.2201
461 1 Ar 24.8852 3.55502 17.7751
462 1 Ar 24.8852 3.55502 21.3301
463 1 Ar 24.8852 3.55502 24.8852
464 1 Ar 24.8852 7.11005 0
465 1 Ar 24.8852 7.11005 3.55502
466 1 Ar 24.8852 7.11005 7.11005
467 1 Ar 24.8852 7.11005 10.6651
468 1 Ar 24.8852 7.11005 14.2201
469 1 Ar 24.8852 7.11005 17.7751
470 1 Ar 24.8852 7.11005 21.3301
471 1 Ar 24.8852 7.11005 24.8852
472 1 Ar 24.8852 10.6651 0
473 1 Ar 24.8852 10.6651 3.55502
474 1 Ar 24.8852 10.6651 7.11005
475 1 Ar 24.8852 10.6651 10.6651
476 1 Ar 24.8852 10.6651 14.2201
477 1 Ar 24.8852 10.6651 17.7751
478 1 Ar 24.8852 10.6651 21.3301
479 1 Ar 24.8852 10.6651 24.8852
480 1 Ar 24.8852 14.2201 0
481 1 Ar 24.8852 14.2201 3.55502
482 1 Ar 24.8852 14.2201 7.11005
483 1 Ar 24.8852 14.2201 10.6651
484 1 Ar 24.8852 14.2201 14.2201
485 1 Ar 24.8852 14.2201 17.7751
486 1 Ar 24.8852 14.2201 21.3301
487 1 Ar 24.8852 14.2201 24.8852
488 1 Ar 24.8852 17.7751 0
489 1 Ar 24.8852 17.7751 3.55502
490 1 Ar 24.8852 17.7751 7.11005
491 1 Ar 24.8852 17.7751 10.6651
492 1 Ar 24.8852 17.7751 14.2201
493 1 Ar 24.8852 17.7751 17.7751
494 1 Ar 24.8852 17.7751 21.3301
495 1 Ar 24.8852 17.7751 24.8852
496 1 Ar 24.8852 21.3301 0
497 1 Ar 24.8852 21.3301 3.55502
498 1 Ar 24.8852 21.3301 7.11005
499 1 Ar 24.8852 21.3301 10.6651
ITEM: TIMESTEP
19999
ITEM: NUMBER OF ATOMS
500
ITEM: BOX BOUNDS pp pp pp
0 31.9952
0 31.9952
0 31.9952
ITEM: ATOMS id type element xu yu zu
0 1 Ar 30.9373 30.8634 30.1637
1 1 Ar 30.5382 0.304799 3.59668
2 1 Ar 31.9744 30.5811 6.35909
3 1 Ar 30.4817 31.7625 12.0835
4 1 Ar 1.33804 31.3283 14.4522
5 1 Ar 31.3655 0.149486 17.4301
6 1 Ar 31.5154 30.8396 21.298
7 1 Ar 0.173689 31.4118 25.2242
8 1 Ar 31.1235 2.63814 31.0605
9 1 Ar 0.29875 3.49696 2.5189
10 1 Ar 0.733639 2.37163 7.11812
11 1 Ar 30.4198 3.53245 10.502
12 1 Ar 31.2624 2.95834 13.9423
13 1 Ar 0.233423 3.51449 17.3437
14 1 Ar 30.8316 2.91835 21.0055
15 1 Ar 0.444295 3.23928 25.6846
16 1 Ar 30.0389 6.53535 1.44807
17 1 Ar 0.177959 6.79834 4.49687
18 1 Ar 30.9638 7.56658 7.5699
19 1 Ar 29.7568 6.93458 10.8242
20 1 Ar 30.6136 6.29123 14.2836
21 1 Ar 31.8807 7.24708 18.1923
22 1 Ar 30.6542 6.71133 22.188
23 1 Ar 1.40685 6.70843 24.2808
24 1 Ar 31.3618 11.0772 31.4095
25 1 Ar 31.6492 9.93502 2.9324
26 1 Ar 0.504772 10.7645 6.49027
27 1 Ar 0.213495 10.1328 10.2916
28 1 Ar 30.9978 10.1354 13.4497
29 1 Ar 31.4139 10.5445 16.8879
30 1 Ar 0.461367 11.1884 20.8185
31 1 Ar 0.325304 12.1635 27.3092
32 1 Ar 31.9451 14.8921 31.7535
33 1 Ar 29.6267 14.2348 3.49275
34 1 Ar 31.6292 14.7788 7.68957
35 1 Ar 0.591951 14.2049 10.9264
36 1 Ar 0.454275 13.6402 14.4104
37 1 Ar 31.8401 13.6589 18.0827
38 1 Ar 31.6487 15.0573 21.2765
39 1 Ar 31.5065 14.3737 24.8852
40 1 Ar 1.07377 18.379 30.0146
41 1 Ar 31.6626 18.2289 1.89686
42 1 Ar 0.687052 17.6934 6.43277
43 1 Ar 31.5891 17.2 10.4985
44 1 Ar 0.135043 17.2412 14.2145
45 1 Ar 30.6868 17.2236 17.7446
46 1 Ar 31.7376 18.416 22.0989
47 1 Ar 30.5734 18.3691 26.1719
48 1 Ar 31.9615 21.9396 30.9992
49 1 Ar 0.9196 21.8047 3.75111
50 1 Ar 30.8608 22.4431 6.48779
51 1 Ar 31.3243 20.9143 10.6769
52 1 Ar 0.564355 20.9253 14.6287
53 1 Ar 30.8955 20.6572 17.6816
54 1 Ar 28.2663 19.7731 22.346
55 1 Ar 0.704873 21.3106 25.0959
56 1 Ar 30.4135 26.4695 30.311
57 1 Ar 31.405 25.8657 3.41459
58 1 Ar 31.9345 27.0005 6.68083
59 1 Ar 0.379367 26.1511 10.2813
60 1 Ar 0.638984 24.1659 14.7229
61 1 Ar 0.503599 26.1975 18.104
62 1 Ar 0.0411847 24.0246 22.5285
63 1 Ar 31.5282 27.6522 24.3678
64 1 Ar 4.08645 31.8414 0.680114
65 1 Ar 2.33443 31.5849 3.99642
66 1 Ar 3.7231 31.2421 7.05165
67 1 Ar 3.09947 0.419075 11.4114
68 1 Ar 5.20346 30.4162 14.0064
69 1 Ar 2.88551 31.2213 17.7417
70 1 Ar 3.02145 31.5242 21.7589
71 1 Ar 4.19166 0.137439 25.2336
72 1 Ar 2.89832 3.18902 30.1113
73 1 Ar 3.774 3.45494 2.14925
74 1 Ar 4.09102 2.44146 5.68179
75 1 Ar 2.36021 3.8173 10.9208
76 1 Ar 3.33386 2.84361 14.3288
77 1 Ar 3.72342 2.73952 18.192
78 1 Ar 2.67692 2.87902 21.6735
79 1 Ar 3.64577 4.08311 24.8565
80 1 Ar 3.47292 7.36494 31.2967
81 1 Ar 2.92225 6.9207 2.65388
82 1 Ar 3.66502 7.51118 6.86054
83 1 Ar 3.98353 7.18567 10.354
84 1 Ar 2.95515 6.51024 13.5945
85 1 Ar 3.77662 6.50258 17.0683
86 1 Ar 2.29396 7.43307 21.1819
87 1 Ar 3.69432 7.09667 26.6183
88 1 Ar 2.85891 10.5099 31.9786
89 1 Ar 3.90997 11.1868 3.61639
90 1 Ar 3.92628 10.9195 7.32916
91 1 Ar 3.37391 11.314 11.1333
92 1 Ar 3.56221 10.3765 14.3026
93 1 Ar 2.87684 10.7138 17.5796
94 1 Ar 3.96835 10.4986 21.5116
95 1 Ar 1.28461 11.1341 24.1184
96 1 Ar 3.74743 14.0008 30.9518
97 1 Ar 2.27199 15.0711 3.57872
98 1 Ar 3.86606 14.454 6.5302
99 1 Ar 3.73986 14.5737 9.96083
100 1 Ar 3.82552 14.6763 13.4571
101 1 Ar 3.65432 14.4007 17.1807
102 1 Ar 2.88171 13.7366 20.4787
103 1 Ar 2.77865 14.5384 25.493
104 1 Ar 3.95655 17.7005 0.193716
105 1 Ar 3.01284 18.7616 3.69547
106 1 Ar 4.51786 17.6378 7.43909
107 1 Ar 3.49789 17.6723 11.0184
108 1 Ar 3.58124 18.7588 14.6128
109 1 Ar 2.18748 17.4106 18.1088
110 1 Ar 3.22102 17.2315 21.3525
111 1 Ar 3.16132 18.6084 25.0301
112 1 Ar 3.76808 21.9403 31.6944
113 1 Ar 4.36019 21.8418 3.66534
114 1 Ar 2.68432 21.0638 7.05214
115 1 Ar 2.93138 20.8282 10.2643
116 1 Ar 4.27649 21.8194 14.1108
117 1 Ar 2.44794 20.8461 17.4746
118 1 Ar 3.23108 21.4281 20.7923
119 1 Ar 4.25555 21.8189 24.2586
120 1 Ar 1.86336 26.6083 0.986251
121 1 Ar 2.84044 24.8359 4.54643
122 1 Ar 4.36732 27.275 7.08176
123 1 Ar 3.69096 24.2654 9.90603
124 1 Ar 3.83323 25.9742 13.1504
125 1 Ar 3.83444 24.7285 17.3069
126 1 Ar 3.25951 25.145 21.2536
127 1 Ar 2.80887 24.5192 26.5745
128 1 Ar 7.51833 0.346581 31.6559
129 1 Ar 6.50767 0.520567 2.9279
130 1 Ar 7.86218 0.389229 6.11578
131 1 Ar 5.77807 30.2874 10.3117
132 1 Ar 8.30538 0.641636 13.758
133 1 Ar 6.67532 0.0300374 17.0881
134 1 Ar 6.91103 31.9838 21.1638
135 1 Ar 7.65998 31.1914 24.5233
136 1 Ar 7.151 3.07376 29.3683
137 1 Ar 7.12076 3.67269 4.40788
138 1 Ar 7.14373 3.61193 7.91863
139 1 Ar 6.7101 3.00228 11.196
140 1 Ar 7.28603 4.1398 14.8377
141 1 Ar 6.88127 3.3721 18.341
142 1 Ar 6.78743 3.15165 21.9915
143 1 Ar 6.73094 2.40829 25.4924
144 1 Ar 7.82825 6.76748 31.7181
145 1 Ar 6.78944 7.98421 3.10294
146 1 Ar 7.1744 6.65417 6.29551
147 1 Ar 7.10436 7.5673 9.58052
148 1 Ar 6.39958 7.35635 13.8537
149 1 Ar 7.03066 6.94016 17.85
150 1 Ar 6.62458 6.22299 21.0633
151 1 Ar 7.30713 6.19633 25.441
152 1 Ar 6.68153 10.5042 0.109091
153 1 Ar 8.65268 11.0126 3.05769
154 1 Ar 7.03078 10.0844 6.17526
155 1 Ar 7.33592 10.8515 10.1524
156 1 Ar 6.63395 10.6977 13.6544
157 1 Ar 6.24636 10.4148 17.1246
158 1 Ar 7.41112 10.3083 20.0867
159 1 Ar 6.65699 9.3836 23.7057
160 1 Ar 7.43117 13.8575 0.0750353
161 1 Ar 6.53527 13.6491 3.89935
162 1 Ar 7.41791 13.817 7.35932
163 1 Ar 7.06413 15.3659 10.5831
164 1 Ar 7.2749 13.9275 14.0432
165 1 Ar 7.40327 13.7022 17.7304
166 1 Ar 6.51418 14.8069 20.9135
167 1 Ar 6.64226 13.9607 25.5935
168 1 Ar 7.52632 17.615 31.3771
169 1 Ar 6.86158 16.7739 3.76077
170 1 Ar 7.89278 17.8695 7.31814
171 1 Ar 7.23395 18.8563 11.119
172 1 Ar 6.51955 17.3054 14.0766
173 1 Ar 6.46939 17.0132 17.7026
174 1 Ar 7.08067 18.0168 21.0218
175 1 Ar 6.26775 18.3496 26.1774
176 1 Ar 7.00762 20.5038 29.4804
177 1 Ar 7.33295 19.8938 2.73097
178 1 Ar 6.18952 21.6764 6.83941
179 1 Ar 6.75526 22.1974 10.304
180 1 Ar 7.48403 20.9078 14.5099
181 1 Ar 5.97742 21.6922 17.7714
182 1 Ar 7.77612 21.5913 21.5772
183 1 Ar 7.31106 21.7311 26.155
184 1 Ar 7.22565 23.6458 31.9452
185 1 Ar 6.37254 25.1428 3.44384
186 1 Ar 8.28966 27.1046 7.14478
187 1 Ar 6.76755 25.9911 10.7166
188 1 Ar 7.61329 24.3825 14.1499
189 1 Ar 7.6356 25.1549 17.9116
190 1 Ar 7.06641 25.2338 21.7846
191 1 Ar 7.51114 27.839 25.7345
192 1 Ar 10.1813 30.0293 31.3959
193 1 Ar 10.5947 31.0247 3.36575
194 1 Ar 11.3832 31.1207 6.96637
195 1 Ar 10.343 30.5198 10.6099
196 1 Ar 11.8719 0.184843 13.9202
197 1 Ar 10.432 31.8955 17.8702
198 1 Ar 10.5721 30.4789 21.3769
199 1 Ar 11.08 30.3963 27.9363
200 1 Ar 10.8478 1.9015 0.943363
201 1 Ar 10.5085 3.9288 3.85586
202 1 Ar 10.4294 2.41981 7.15549
203 1 Ar 10.7402 2.79865 10.7205
204 1 Ar 10.4302 3.51824 13.9102
205 1 Ar 10.8728 3.50092 17.6663
206 1 Ar 11.123 2.79066 21.41
207 1 Ar 10.7583 3.80426 24.9338
208 1 Ar 11.1766 7.37229 0.501578
209 1 Ar 10.594 7.23944 4.06264
210 1 Ar 10.1167 7.75449 7.81045
211 1 Ar 10.3922 6.14598 10.5962
212 1 Ar 10.3731 7.16781 14.5035
213 1 Ar 10.4031 7.38353 17.9342
214 1 Ar 10.3723 6.20316 21.1745
215 1 Ar 10.7832 6.73855 26.3805
216 1 Ar 10.836 10.5543 30.2737
217 1 Ar 11.9754 10.1108 2.59309
218 1 Ar 10.4747 10.5146 5.89085
219 1 Ar 11.3193 11.2732 9.90271
220 1 Ar 10.3868 10.9528 13.9839
221 1 Ar 9.80171 10.7054 17.5205
222 1 Ar 11.2232 9.74169 21.4481
223 1 Ar 8.47604 10.6396 26.3605
224 1 Ar 10.8054 13.9857 0.190502
225 1 Ar 10.3104 14.7582 4.01187
226 1 Ar 11.1218 13.4141 7.37917
227 1 Ar 10.6627 14.3039 11.7107
228 1 Ar 10.8386 14.8139 15.2381
229 1 Ar 10.4359 14.9743 19.0355
230 1 Ar 10.8298 13.4213 22.6296
231 1 Ar 10.1991 14.9574 25.3422
232 1 Ar 10.5709 18.5387 0.621498
233 1 Ar 11.2904 18.4606 3.87417
234 1 Ar 11.2973 17.1634 7.12523
235 1 Ar 11.9799 17.6397 10.8828
236 1 Ar 10.2527 18.5034 14.0173
237 1 Ar 10.9228 18.4019 17.6515
238 1 Ar 10.3894 17.3265 22.103
239 1 Ar 10.5654 18.2393 27.0327
240 1 Ar 10.7871 22.3726 30.2325
241 1 Ar 10.0532 21.7788 2.4864
242 1 Ar 9.45206 21.1527 6.94732
243 1 Ar 10.2235 21.9484 11.1176
244 1 Ar 10.7621 21.8415 14.9326
245 1 Ar 9.64939 21.7047 18.0871
246 1 Ar 12.0374 21.1007 20.6168
247 1 Ar 10.7057 21.7288 25.0688
248 1 Ar 9.99409 25.9153 30.5657
249 1 Ar 10.7942 26.2393 2.97296
250 1 Ar 10.7231 24.1322 5.88589
251 1 Ar 10.6695 27.0723 10.2215
252 1 Ar 11.1003 25.1653 14.0245
253 1 Ar 11.0158 25.9587 17.4845
254 1 Ar 10.8443 25.0661 21.2811
255 1 Ar 10.5995 27.1998 24.183
256 1 Ar 13.9017 30.8672 31.4141
257 1 Ar 14.8558 0.799636 3.95137
258 1 Ar 14.5814 31.584 7.24229
259 1 Ar 14.0258 31.7934 10.5139
260 1 Ar 15.1199 0.248659 13.9319
261 1 Ar 13.749 31.669 17.2493
262 1 Ar 13.6127 31.788 21.7694
263 1 Ar 14.2971 31.5904 26.4489
264 1 Ar 13.3998 2.42451 28.9311
265 1 Ar 13.7624 3.43516 2.09091
266 1 Ar 13.9205 2.97351 6.8912
267 1 Ar 14.3623 3.18828 10.9207
268 1 Ar 13.6727 4.58921 13.982
269 1 Ar 14.3546 3.97762 17.4223
270 1 Ar 14.5586 2.92902 21.2
271 1 Ar 13.9963 3.22039 25.3598
272 1 Ar 14.0057 6.99015 30.9019
273 1 Ar 14.2939 6.21369 4.11985
274 1 Ar 13.8314 6.16074 7.69721
275 1 Ar 13.5946 7.11786 11.4435
276 1 Ar 14.4282 8.4539 14.6264
277 1 Ar 13.7405 7.20265 18.0565
278 1 Ar 15.4952 6.63406 21.5835
279 1 Ar 13.101 6.30306 23.646
280 1 Ar 14.5828 10.542 0.155599
281 1 Ar 15.1785 9.56965 4.2497
282 1 Ar 13.8051 10.8837 7.18167
283 1 Ar 14.4568 10.1823 10.2645
284 1 Ar 13.6804 11.4417 13.4547
285 1 Ar 14.0623 10.7794 17.7866
286 1 Ar 14.5249 11.0011 21.636
287 1 Ar 13.8093 8.2258 26.8661
288 1 Ar 14.6556 14.1963 0.197136
289 1 Ar 13.4299 13.0555 3.68628
290 1 Ar 14.2094 14.3945 6.49863
291 1 Ar 13.8898 14.2864 10.3271
292 1 Ar 14.4059 14.2788 14.9052
293 1 Ar 14.3528 14.3762 18.9149
294 1 Ar 14.1586 15.1227 22.1664
295 1 Ar 13.825 13.9842 25.7331
296 1 Ar 14.22 17.8956 31.4332
297 1 Ar 14.0151 16.7174 2.9327
298 1 Ar 14.4297 17.8892 8.19451
299 1 Ar 15.1207 18.1376 11.5719
300 1 Ar 13.5821 18.0434 14.7588
301 1 Ar 14.4264 18.2718 17.923
302 1 Ar 14.0957 18.7846 22.0032
303 1 Ar 13.6946 18.0107 25.6866
304 1 Ar 13.7944 21.2619 31.3812
305 1 Ar 13.7846 20.8521 3.25711
306 1 Ar 13.6061 21.2693 6.82483
307 1 Ar 13.6826 22.3482 10.3099
308 1 Ar 14.7448 21.3325 13.7309
309 1 Ar 13.9164 21.5786 17.263
310 1 Ar 15.2043 23.2987 21.0172
311 1 Ar 14.2155 21.4444 25.8159
312 1 Ar 14.4748 24.8157 30.5079
313 1 Ar 14.0334 25.5228 3.0125
314 1 Ar 14.2455 25.2073 6.89933
315 1 Ar 14.7306 25.5105 10.4198
316 1 Ar 14.6728 25.1767 14.3088
317 1 Ar 14.6959 25.3099 18.1589
318 1 Ar 13.5812 27.1449 21.2415
319 1 Ar 14.6231 24.6799 24.1928
320 1 Ar 17.9239 31.193 0.938745
321 1 Ar 18.5929 0.505157 4.49253
322 1 Ar 18.3196 30.3637 8.06748
323 1 Ar 17.3905 31.5748 11.4611
324 1 Ar 18.6059 0.334409 14.5221
325 1 Ar 18.0549 31.5885 17.7578
326 1 Ar 17.105 0.0333178 21.7765
327 1 Ar 18.3393 31.8834 27.2096
328 1 Ar 18.2673 3.72298 31.7571
329 1 Ar 16.7802 3.99311 3.1664
330 1 Ar 17.8463 3.93308 6.75706
331 1 Ar 18.8661 2.42037 9.44725
332 1 Ar 17.8421 3.82559 13.9323
333 1 Ar 17.8833 3.35956 17.4303
334 1 Ar 18.1315 3.35915 21.276
335 1 Ar 17.6243 2.87052 25.3357
336 1 Ar 17.3791 7.61024 30.4082
337 1 Ar 18.0844 7.66518 3.18458
338 1 Ar 17.4451 7.83394 6.65316
339 1 Ar 17.383 6.22185 9.95601
340 1 Ar 17.9336 7.24647 13.9523
341 1 Ar 16.7302 7.56261 17.2665
342 1 Ar 18.7937 7.18979 22.1051
343 1 Ar 17.1305 6.04313 26.1739
344 1 Ar 17.9253 10.6967 31.6102
345 1 Ar 18.7023 10.9917 3.29306
346 1 Ar 17.441 11.2521 6.62254
347 1 Ar 17.882 10.4375 10.6498
348 1 Ar 17.3702 10.7805 13.9552
349 1 Ar 18.9269 10.9891 17.2435
350 1 Ar 18.6366 10.8859 21.0643
351 1 Ar 17.5626 10.6806 25.9159
352 1 Ar 18.4145 13.9273 0.523546
353 1 Ar 16.8703 14.3258 3.39717
354 1 Ar 17.5905 14.795 6.89295
355 1 Ar 17.4419 13.9125 10.0431
356 1 Ar 18.5143 14.2469 13.9926
357 1 Ar 17.8163 14.4665 17.681
358 1 Ar 17.6768 14.144 21.5472
359 1 Ar 17.5725 13.9335 25.8659
360 1 Ar 17.4954 17.3855 0.912399
361 1 Ar 17.0627 18.3255 4.12403
362 1 Ar 18.3119 18.4928 7.32072
363 1 Ar 18.6094 17.4233 10.8845
364 1 Ar 17.1489 17.622 14.1375
365 1 Ar 18.7583 17.7321 17.2135
366 1 Ar 17.7273 17.5597 20.9519
367 1 Ar 17.0872 18.6695 26.1565
368 1 Ar 17.5336 20.6703 31.0182
369 1 Ar 17.8741 21.6789 3.00243
370 1 Ar 17.1543 21.5545 6.98055
371 1 Ar 17.2146 20.5446 10.2586
372 1 Ar 18.0045 21.9654 13.5523
373 1 Ar 17.9226 21.1284 17.4873
374 1 Ar 17.9436 20.7984 21.3499
375 1 Ar 17.7764 21.9867 24.5093
376 1 Ar 18.498 25.4147 31.4705
377 1 Ar 17.9802 26.0629 3.39594
378 1 Ar 18.1383 25.9279 6.91864
379 1 Ar 18.3208 24.5252 10.3073
380 1 Ar 19.0894 25.606 14.032
381 1 Ar 18.6304 24.6175 17.6465
382 1 Ar 19.1273 25.2936 21.2742
383 1 Ar 17.8809 25.8821 25.9177
384 1 Ar 22.0701 31.9099 29.5657
385 1 Ar 22.2422 31.4885 4.17383
386 1 Ar 21.9072 30.4838 7.80105
387 1 Ar 20.4714 30.3761 11.0669
388 1 Ar 21.7154 31.8212 13.9469
389 1 Ar 21.3365 31.0929 18.4428
390 1 Ar 20.5174 31.6937 22.1581
391 1 Ar 22.3549 31.7265 25.3808
392 1 Ar 21.5358 2.765 0.16632
393 1 Ar 21.2192 3.63916 3.24713
394 1 Ar 21.7935 2.41313 7.35252
395 1 Ar 21.5483 2.19743 11.3948
396 1 Ar 21.4069 3.8234 14.3626
397 1 Ar 21.1715 2.79982 17.9307
398 1 Ar 21.8692 3.11814 21.3468
399 1 Ar 21.448 3.02386 26.2339
400 1 Ar 20.593 6.39028 31.8247
401 1 Ar 21.7551 7.14687 2.72864
402 1 Ar 21.7223 6.33932 7.24434
403 1 Ar 20.6662 6.89058 10.4336
404 1 Ar 21.5481 7.79733 14.2929
405 1 Ar 19.7932 6.1363 18.6321
406 1 Ar 22.5231 7.31997 20.9166
407 1 Ar 21.7326 7.14043 24.3071
408 1 Ar 21.5104 10.7604 31.5556
409 1 Ar 22.2484 10.8464 2.94063
410 1 Ar 21.0109 10.7359 7.32754
411 1 Ar 21.5665 10.287 10.7348
412 1 Ar 21.6354 11.1036 14.6387
413 1 Ar 22.1157 10.5052 18.1462
414 1 Ar 22.5611 10.6056 22.6599
415 1 Ar 21.1215 10.034 26.4005
416 1 Ar 22.314 14.8782 31.5509
417 1 Ar 21.56 14.4279 2.84973
418 1 Ar 20.8606 13.6922 6.40979
419 1 Ar 21.0974 13.7485 10.0541
420 1 Ar 22.3588 14.313 14.0077
421 1 Ar 21.3021 14.7894 17.2136
422 1 Ar 21.0268 13.8063 20.7888
423 1 Ar 21.5271 13.3262 25.0226
424 1 Ar 21.085 17.9214 0.0535123
425 1 Ar 20.513 17.5424 4.16241
426 1 Ar 21.7073 17.1583 7.38554
427 1 Ar 22.1337 17.3389 11.0425
428 1 Ar 21.6108 17.47 14.4375
429 1 Ar 21.9284 17.9136 18.1151
430 1 Ar 20.8963 17.4876 21.8024
431 1 Ar 20.4078 16.9308 25.2835
432 1 Ar 21.0787 21.9098 31.6994
433 1 Ar 21.0975 21.0555 3.53314
434 1 Ar 20.5029 21.3949 7.64993
435 1 Ar 21.6821 21.4613 11.0304
436 1 Ar 20.8429 20.9232 14.6777
437 1 Ar 21.7897 21.3974 17.8945
438 1 Ar 21.2492 21.2569 22.1126
439 1 Ar 20.9196 20.8997 26.174
440 1 Ar 21.8 25.177 1.02597
441 1 Ar 21.494 24.5515 4.39194
442 1 Ar 21.7586 24.5876 8.05768
443 1 Ar 21.7441 26.5975 11.0713