ITEM: TIMESTEP
-1
ITEM: NUMBER OF ATOMS
500
ITEM: BOX BOUNDS pp pp pp
0 36.6254
0 36.6254
0 36.6254
ITEM: ATOMS id type element xu yu zu
0 1 Ar 0 0 0
1 1 Ar 0 0 4.06949
2 1 Ar 0 0 8.13898
3 1 Ar 0 0 12.2085
4 1 Ar 0 0 16.278
5 1 Ar 0 0 20.3474
6 1 Ar 0 0 24.4169
7 1 Ar 0 0 28.4864
8 1 Ar 0 4.06949 0
9 1 Ar 0 4.06949 4.06949
10 1 Ar 0 4.06949 8.13898
11 1 Ar 0 4.06949 12.2085
12 1 Ar 0 4.06949 16.278
13 1 Ar 0 4.06949 20.3474
14 1 Ar 0 4.06949 24.4169
15 1 Ar 0 4.06949 28.4864
16 1 Ar 0 8.13898 0
17 1 Ar 0 8.13898 4.06949
18 1 Ar 0 8.13898 8.13898
19 1 Ar 0 8.13898 12.2085
20 1 Ar 0 8.13898 16.278
21 1 Ar 0 8.13898 20.3474
22 1 Ar 0 8.13898 24.4169
23 1 Ar 0 8.13898 28.4864
24 1 Ar 0 12.2085 0
25 1 Ar 0 12.2085 4.06949
26 1 Ar 0 12.2085 8.13898
27 1 Ar 0 12.2085 12.2085
28 1 Ar 0 12.2085 16.278
29 1 Ar 0 12.2085 20.3474
30 1 Ar 0 12.2085 24.4169
31 1 Ar 0 12.2085 28.4864
32 1 Ar 0 16.278 0
33 1 Ar 0 16.278 4.06949
34 1 Ar 0 16.278 8.13898
35 1 Ar 0 16.278 12.2085
36 1 Ar 0 16.278 16.278
37 1 Ar 0 16.278 20.3474
38 1 Ar 0 16.278 24.4169
39 1 Ar 0 16.278 28.4864
40 1 Ar 0 20.3474 0
41 1 Ar 0 20.3474 4.06949
42 1 Ar 0 20.3474 8.13898
43 1 Ar 0 20.3474 12.2085
44 1 Ar 0 20.3474 16.278
45 1 Ar 0 20.3474 20.3474
46 1 Ar 0 20.3474 24.4169
47 1 Ar 0 20.3474 28.4864
48 1 Ar 0 24.4169 0
49 1 Ar 0 24.4169 4.06949
50 1 Ar 0 24.4169 8.13898
51 1 Ar 0 24.4169 12.2085
52 1 Ar 0 24.4169 16.278
53 1 Ar 0 24.4169 20.3474
54 1 Ar 0 24.4169 24.4169
55 1 Ar 0 24.4169 28.4864
56 1 Ar 0 28.4864 0
57 1 Ar 0 28.4864 4.06949
58 1 Ar 0 28.4864 8.13898
59 1 Ar 0 28.4864 12.2085
60 1 Ar 0 28.4864 16.278
61 1 Ar 0 28.4864 20.3474
62 1 Ar 0 28.4864 24.4169
63 1 Ar 0 28.4864 28.4864
64 1 Ar 4.06949 0 0
65 1 Ar 4.06949 0 4.06949
66 1 Ar 4.06949 0 8.13898
67 1 Ar 4.06949 0 12.2085
68 1 Ar 4.06949 0 16.278
69 1 Ar 4.06949 0 20.3474
70 1 Ar 4.06949 0 24.4169
71 1 Ar 4.06949 0 28.4864
72 1 Ar 4.06949 4.06949 0
73 1 Ar 4.06949 4.06949 4.06949
74 1 Ar 4.06949 4.06949 8.13898
75 1 Ar 4.06949 4.06949 12.2085
76 1 Ar 4.06949 4.06949 16.278
77 1 Ar 4.06949 4.06949 20.3474
78 1 Ar 4.06949 4.06949 24.4169
79 1 Ar 4.06949 4.06949 28.4864
80 1 Ar 4.06949 8.13898 0
81 1 Ar 4.06949 8.13898 4.06949
82 1 Ar 4.06949 8.13898 8.13898
83 1 Ar 4.06949 8.13898 12.2085
84 1 Ar 4.06949 8.13898 16.278
85 1 Ar 4.06949 8.13898 20.3474
86 1 Ar 4.06949 8.13898 24.4169
87 1 Ar 4.06949 8.13898 28.4864
88 1 Ar 4.06949 12.2085 0
89 1 Ar 4.06949 12.2085 4.06949
90 1 Ar 4.06949 12.2085 8.13898
91 1 Ar 4.06949 12.2085 12.2085
92 1 Ar 4.06949 12.2085 16.278
93 1 Ar 4.06949 12.2085 20.3474
94 1 Ar 4.06949 12.2085 24.4169
95 1 Ar 4.06949 12.2085 28.4864
96 1 Ar 4.06949 16.278 0
97 1 Ar 4.06949 16.278 4.06949
98 1 Ar 4.06949 16.278 8.13898
99 1 Ar 4.06949 16.278 12.2085
100 1 Ar 4.06949 16.278 16.278
101 1 Ar 4.06949 16.278 20.3474
102 1 Ar 4.06949 16.278 24.4169
103 1 Ar 4.06949 16.278 28.4864
104 1 Ar 4.06949 20.3474 0
105 1 Ar 4.06949 20.3474 4.06949
106 1 Ar 4.06949 20.3474 8.13898
107 1 Ar 4.06949 20.3474 12.2085
108 1 Ar 4.06949 20.3474 16.278
109 1 Ar 4.06949 20.3474 20.3474
110 1 Ar 4.06949 20.3474 24.4169
111 1 Ar 4.06949 20.3474 28.4864
112 1 Ar 4.06949 24.4169 0
113 1 Ar 4.06949 24.4169 4.06949
114 1 Ar 4.06949 24.4169 8.13898
115 1 Ar 4.06949 24.4169 12.2085
116 1 Ar 4.06949 24.4169 16.278
117 1 Ar 4.06949 24.4169 20.3474
118 1 Ar 4.06949 24.4169 24.4169
119 1 Ar 4.06949 24.4169 28.4864
120 1 Ar 4.06949 28.4864 0
121 1 Ar 4.06949 28.4864 4.06949
122 1 Ar 4.06949 28.4864 8.13898
123 1 Ar 4.06949 28.4864 12.2085
124 1 Ar 4.06949 28.4864 16.278
125 1 Ar 4.06949 28.4864 20.3474
126 1 Ar 4.06949 28.4864 24.4169
127 1 Ar 4.06949 28.4864 28.4864
128 1 Ar 8.13898 0 0
129 1 Ar 8.13898 0 4.06949
130 1 Ar 8.13898 0 8.13898
131 1 Ar 8.13898 0 12.2085
132 1 Ar 8.13898 0 16.278
133 1 Ar 8.13898 0 20.3474
134 1 Ar 8.13898 0 24.4169
135 1 Ar 8.13898 0 28.4864
136 1 Ar 8.13898 4.06949 0
137 1 Ar 8.13898 4.06949 4.06949
138 1 Ar 8.13898 4.06949 8.13898
139 1 Ar 8.13898 4.06949 12.2085
140 1 Ar 8.13898 4.06949 16.278
141 1 Ar 8.13898 4.06949 20.3474
142 1 Ar 8.13898 4.06949 24.4169
143 1 Ar 8.13898 4.06949 28.4864
144 1 Ar 8.13898 8.13898 0
145 1 Ar 8.13898 8.13898 4.06949
146 1 Ar 8.13898 8.13898 8.13898
147 1 Ar 8.13898 8.13898 12.2085
148 1 Ar 8.13898 8.13898 16.278
149 1 Ar 8.13898 8.13898 20.3474
150 1 Ar 8.13898 8.13898 24.4169
151 1 Ar 8.13898 8.13898 28.4864
152 1 Ar 8.13898 12.2085 0
153 1 Ar 8.13898 12.2085 4.06949
154 1 Ar 8.13898 12.2085 8.13898
155 1 Ar 8.13898 12.2085 12.2085
156 1 Ar 8.13898 12.2085 16.278
157 1 Ar 8.13898 12.2085 20.3474
158 1 Ar 8.13898 12.2085 24.4169
159 1 Ar 8.13898 12.2085 28.4864
160 1 Ar 8.13898 16.278 0
161 1 Ar 8.13898 16.278 4.06949
162 1 Ar 8.13898 16.278 8.13898
163 1 Ar 8.13898 16.278 12.2085
164 1 Ar 8.13898 16.278 16.278
165 1 Ar 8.13898 16.278 20.3474
166 1 Ar 8.13898 16.278 24.4169
167 1 Ar 8.13898 16.278 28.4864
168 1 Ar 8.13898 20.3474 0
169 1 Ar 8.13898 20.3474 4.06949
170 1 Ar 8.13898 20.3474 8.13898
171 1 Ar 8.13898 20.3474 12.2085
172 1 Ar 8.13898 20.3474 16.278
173 1 Ar 8.13898 20.3474 20.3474
174 1 Ar 8.13898 20.3474 24.4169
175 1 Ar 8.13898 20.3474 28.4864
176 1 Ar 8.13898 24.4169 0
177 1 Ar 8.13898 24.4169 4.06949
178 1 Ar 8.13898 24.4169 8.13898
179 1 Ar 8.13898 24.4169 12.2085
180 1 Ar 8.13898 24.4169 16.278
181 1 Ar 8.13898 24.4169 20.3474
182 1 Ar 8.13898 24.4169 24.4169
183 1 Ar 8.13898 24.4169 28.4864
184 1 Ar 8.13898 28.4864 0
185 1 Ar 8.13898 28.4864 4.06949
186 1 Ar 8.13898 28.4864 8.13898
187 1 Ar 8.13898 28.4864 12.2085
188 1 Ar 8.13898 28.4864 16.278
189 1 Ar 8.13898 28.4864 20.3474
190 1 Ar 8.13898 28.4864 24.4169
191 1 Ar 8.13898 28.4864 28.4864
192 1 Ar 12.2085 0 0
193 1 Ar 12.2085 0 4.06949
194 1 Ar 12.2085 0 8.13898
195 1 Ar 12.2085 0 12.2085
196 1 Ar 12.2085 0 16.278
197 1 Ar 12.2085 0 20.3474
198 1 Ar 12.2085 0 24.4169
199 1 Ar 12.2085 0 28.4864
200 1 Ar 12.2085 4.06949 0
201 1 Ar 12.2085 4.06949 4.06949
202 1 Ar 12.2085 4.06949 8.13898
203 1 Ar 12.2085 4.06949 12.2085
204 1 Ar 12.2085 4.06949 16.278
205 1 Ar 12.2085 4.06949 20.3474
206 1 Ar 12.2085 4.06949 24.4169
207 1 Ar 12.2085 4.06949 28.4864
208 1 Ar 12.2085 8.13898 0
209 1 Ar 12.2085 8.13898 4.06949
210 1 Ar 12.2085 8.13898 8.13898
211 1 Ar 12.2085 8.13898 12.2085
212 1 Ar 12.2085 8.13898 16.278
213 1 Ar 12.2085 8.13898 20.3474
214 1 Ar 12.2085 8.13898 24.4169
215 1 Ar 12.2085 8.13898 28.4864
216 1 Ar 12.2085 12.2085 0
217 1 Ar 12.2085 12.2085 4.06949
218 1 Ar 12.2085 12.2085 8.13898
219 1 Ar 12.2085 12.2085 12.2085
220 1 Ar 12.2085 12.2085 16.278
221 1 Ar 12.2085 12.2085 20.3474
222 1 Ar 12.2085 12.2085 24.4169
223 1 Ar 12.2085 12.2085 28.4864
224 1 Ar 12.2085 16.278 0
225 1 Ar 12.2085 16.278 4.06949
226 1 Ar 12.2085 16.278 8.13898
227 1 Ar 12.2085 16.278 12.2085
228 1 Ar 12.2085 16.278 16.278
229 1 Ar 12.2085 16.278 20.3474
230 1 Ar 12.2085 16.278 24.4169
231 1 Ar 12.2085 16.278 28.4864
232 1 Ar 12.2085 20.3474 0
233 1 Ar 12.2085 20.3474 4.06949
234 1 Ar 12.2085 20.3474 8.13898
235 1 Ar 12.2085 20.3474 12.2085
236 1 Ar 12.2085 20.3474 16.278
237 1 Ar 12.2085 20.3474 20.3474
238 1 Ar 12.2085 20.3474 24.4169
239 1 Ar 12.2085 20.3474 28.4864
240 1 Ar 12.2085 24.4169 0
241 1 Ar 12.2085 24.4169 4.06949
242 1 Ar 12.2085 24.4169 8.13898
243 1 Ar 12.2085 24.4169 12.2085
244 1 Ar 12.2085 24.4169 16.278
245 1 Ar 12.2085 24.4169 20.3474
246 1 Ar 12.2085 24.4169 24.4169
247 1 Ar 12.2085 24.4169 28.4864
248 1 Ar 12.2085 28.4864 0
249 1 Ar 12.2085 28.4864 4.06949
250 1 Ar 12.2085 28.4864 8.13898
251 1 Ar 12.2085 28.4864 12.2085
252 1 Ar 12.2085 28.4864 16.278
253 1 Ar 12.2085 28.4864 20.3474
254 1 Ar 12.2085 28.4864 24.4169
255 1 Ar 12.2085 28.4864 28.4864
256 1 Ar 16.278 0 0
257 1 Ar 16.278 0 4.06949
258 1 Ar 16.278 0 8.13898
259 1 Ar 16.278 0 12.2085
260 1 Ar 16.278 0 16.278
261 1 Ar 16.278 0 20.3474
262 1 Ar 16.278 0 24.4169
263 1 Ar 16.278 0 28.4864
264 1 Ar 16.278 4.06949 0
265 1 Ar 16.278 4.06949 4.06949
266 1 Ar 16.278 4.06949 8.13898
267 1 Ar 16.278 4.06949 12.2085
268 1 Ar 16.278 4.06949 16.278
269 1 Ar 16.278 4.06949 20.3474
270 1 Ar 16.278 4.06949 24.4169
271 1 Ar 16.278 4.06949 28.4864
272 1 Ar 16.278 8.13898 0
273 1 Ar 16.278 8.13898 4.06949
274 1 Ar 16.278 8.13898 8.13898
275 1 Ar 16.278 8.13898 12.2085
276 1 Ar 16.278 8.13898 16.278
277 1 Ar 16.278 8.13898 20.3474
278 1 Ar 16.278 8.13898 24.4169
279 1 Ar 16.278 8.13898 28.4864
280 1 Ar 16.278 12.2085 0
281 1 Ar 16.278 12.2085 4.06949
282 1 Ar 16.278 12.2085 8.13898
283 1 Ar 16.278 12.2085 12.2085
284 1 Ar 16.278 12.2085 16.278
285 1 Ar 16.278 12.2085 20.3474
286 1 Ar 16.278 12.2085 24.4169
287 1 Ar 16.278 12.2085 28.4864
288 1 Ar 16.278 16.278 0
289 1 Ar 16.278 16.278 4.06949
290 1 Ar 16.278 16.278 8.13898
291 1 Ar 16.278 16.278 12.2085
292 1 Ar 16.278 16.278 16.278
293 1 Ar 16.278 16.278 20.3474
294 1 Ar 16.278 16.278 24.4169
295 1 Ar 16.278 16.278 28.4864
296 1 Ar 16.278 20.3474 0
297 1 Ar 16.278 20.3474 4.06949
298 1 Ar 16.278 20.3474 8.13898
299 1 Ar 16.278 20.3474 12.2085
300 1 Ar 16.278 20.3474 16.278
301 1 Ar 16.278 20.3474 20.3474
302 1 Ar 16.278 20.3474 24.4169
303 1 Ar 16.278 20.3474 28.4864
304 1 Ar 16.278 24.4169 0
305 1 Ar 16.278 24.4169 4.06949
306 1 Ar 16.278 24.4169 8.13898
307 1 Ar 16.278 24.4169 12.2085
308 1 Ar 16.278 24.4169 16.278
309 1 Ar 16.278 24.4169 20.3474
310 1 Ar 16.278 24.4169 24.4169
311 1 Ar 16.278 24.4169 28.4864
312 1 Ar 16.278 28.4864 0
313 1 Ar 16.278 28.4864 4.06949
314 1 Ar 16.278 28.4864 8.13898
315 1 Ar 16.278 28.4864 12.2085
316 1 Ar 16.278 28.4864 16.278
317 1 Ar 16.278 28.4864 20.3474
318 1 Ar 16.278 28.4864 24.4169
319 1 Ar 16.278 28.4864 28.4864
320 1 Ar 20.3474 0 0
321 1 Ar 20.3474 0 4.06949
322 1 Ar 20.3474 0 8.13898
323 1 Ar 20.3474 0 12.2085
324 1 Ar 20.3474 0 16.278
325 1 Ar 20.3474 0 20.3474
326 1 Ar 20.3474 0 24.4169
327 1 Ar 20.3474 0 28.4864
328 1 Ar 20.3474 4.06949 0
329 1 Ar 20.3474 4.06949 4.06949
330 1 Ar 20.3474 4.06949 8.13898
331 1 Ar 20.3474 4.06949 12.2085
332 1 Ar 20.3474 4.06949 16.278
333 1 Ar 20.3474 4.06949 20.3474
334 1 Ar 20.3474 4.06949 24.4169
335 1 Ar 20.3474 4.06949 28.4864
336 1 Ar 20.3474 8.13898 0
337 1 Ar 20.3474 8.13898 4.06949
338 1 Ar 20.3474 8.13898 8.13898
339 1 Ar 20.3474 8.13898 12.2085
340 1 Ar 20.3474 8.13898 16.278
341 1 Ar 20.3474 8.13898 20.3474
342 1 Ar 20.3474 8.13898 24.4169
343 1 Ar 20.3474 8.13898 28.4864
344 1 Ar 20.3474 12.2085 0
345 1 Ar 20.3474 12.2085 4.06949
346 1 Ar 20.3474 12.2085 8.13898
347 1 Ar 20.3474 12.2085 12.2085
348 1 Ar 20.3474 12.2085 16.278
349 1 Ar 20.3474 12.2085 20.3474
350 1 Ar 20.3474 12.2085 24.4169
351 1 Ar 20.3474 12.2085 28.4864
352 1 Ar 20.3474 16.278 0
353 1 Ar 20.3474 16.278 4.06949
354 1 Ar 20.3474 16.278 8.13898
355 1 Ar 20.3474 16.278 12.2085
356 1 Ar 20.3474 16.278 16.278
357 1 Ar 20.3474 16.278 20.3474
358 1 Ar 20.3474 16.278 24.4169
359 1 Ar 20.3474 16.278 28.4864
360 1 Ar 20.3474 20.3474 0
361 1 Ar 20.3474 20.3474 4.06949
362 1 Ar 20.3474 20.3474 8.13898
363 1 Ar 20.3474 20.3474 12.2085
364 1 Ar 20.3474 20.3474 16.278
365 1 Ar 20.3474 20.3474 20.3474
366 1 Ar 20.3474 20.3474 24.4169
367 1 Ar 20.3474 20.3474 28.4864
368 1 Ar 20.3474 24.4169 0
369 1 Ar 20.3474 24.4169 4.06949
370 1 Ar 20.3474 24.4169 8.13898
371 1 Ar 20.3474 24.4169 12.2085
372 1 Ar 20.3474 24.4169 16.278
373 1 Ar 20.3474 24.4169 20.3474
374 1 Ar 20.3474 24.4169 24.4169
375 1 Ar 20.3474 24.4169 28.4864
376 1 Ar 20.3474 28.4864 0
377 1 Ar 20.3474 28.4864 4.06949
378 1 Ar 20.3474 28.4864 8.13898
379 1 Ar 20.3474 28.4864 12.2085
380 1 Ar 20.3474 28.4864 16.278
381 1 Ar 20.3474 28.4864 20.3474
382 1 Ar 20.3474 28.4864 24.4169
383 1 Ar 20.3474 28.4864 28.4864
384 1 Ar 24.4169 0 0
385 1 Ar 24.4169 0 4.06949
386 1 Ar 24.4169 0 8.13898
387 1 Ar 24.4169 0 12.2085
388 1 Ar 24.4169 0 16.278
389 1 Ar 24.4169 0 20.3474
390 1 Ar 24.4169 0 24.4169
391 1 Ar 24.4169 0 28.4864
392 1 Ar 24.4169 4.06949 0
393 1 Ar 24.4169 4.06949 4.06949
394 1 Ar 24.4169 4.06949 8.13898
395 1 Ar 24.4169 4.06949 12.2085
396 1 Ar 24.4169 4.06949 16.278
397 1 Ar 24.4169 4.06949 20.3474
398 1 Ar 24.4169 4.06949 24.4169
399 1 Ar 24.4169 4.06949 28.4864
400 1 Ar 24.4169 8.13898 0
401 1 Ar 24.4169 8.13898 4.06949
402 1 Ar 24.4169 8.13898 8.13898
403 1 Ar 24.4169 8.13898 12.2085
404 1 Ar 24.4169 8.13898 16.278
405 1 Ar 24.4169 8.13898 20.3474
406 1 Ar 24.4169 8.13898 24.4169
407 1 Ar 24.4169 8.13898 28.4864
408 1 Ar 24.4169 12.2085 0
409 1 Ar 24.4169 12.2085 4.06949
410 1 Ar 24.4169 12.2085 8.13898
411 1 Ar 24.4169 12.2085 12.2085
412 1 Ar 24.4169 12.2085 16.278
413 1 Ar 24.4169 12.2085 20.3474
414 1 Ar 24.4169 12.2085 24.4169
415 1 Ar 24.4169 12.2085 28.4864
416 1 Ar 24.4169 16.278 0
417 1 Ar 24.4169 16.278 4.06949
418 1 Ar 24.4169 16.278 8.13898
419 1 Ar 24.4169 16.278 12.2085
420 1 Ar 24.4169 16.278 16.278
421 1 Ar 24.4169 16.278 20.3474
422 1 Ar 24.4169 16.278 24.4169
423 1 Ar 24.4169 16.278 28.4864
424 1 Ar 24.4169 20.3474 0
425 1 Ar 24.4169 20.3474 4.06949
426 1 Ar 24.4169 20.3474 8.13898
427 1 Ar 24.4169 20.3474 12.2085
428 1 Ar 24.4169 20.3474 16.278
429 1 Ar 24.4169 20.3474 20.3474
430 1 Ar 24.4169 20.3474 24.4169
431 1 Ar 24.4169 20.3474 28.4864
432 1 Ar 24.4169 24.4169 0
433 1 Ar 24.4169 24.4169 4.06949
434 1 Ar 24.4169 24.4169 8.13898
435 1 Ar 24.4169 24.4169 12.2085
436 1 Ar 24.4169 24.4169 16.278
437 1 Ar 24.4169 24.4169 20.3474
438 1 Ar 24.4169 24.4169 24.4169
439 1 Ar 24.4169 24.4169 28.4864
440 1 Ar 24.4169 28.4864 0
441 1 Ar 24.4169 28.4864 4.06949
442 1 Ar 24.4169 28.4864 8.13898
443 1 Ar 24.4169 28.4864 12.2085
444 1 Ar 24.4169 28.4864 16.278
445 1 Ar 24.4169 28.4864 20.3474
446 1 Ar 24.4169 28.4864 24.4169
447 1 Ar 24.4169 28.4864 28.4864
448 1 Ar 28.4864 0 0
449 1 Ar 28.4864 0 4.06949
450 1 Ar 28.4864 0 8.13898
451 1 Ar 28.4864 0 12.2085
452 1 Ar 28.4864 0 16.278
453 1 Ar 28.4864 0 20.3474
454 1 Ar 28.4864 0 24.4169
455 1 Ar 28.4864 0 28.4864
456 1 Ar 28.4864 4.06949 0
457 1 Ar 28.4864 4.06949 4.06949
458 1 Ar 28.4864 4.06949 8.13898
459 1 Ar 28.4864 4.06949 12.2085
460 1 Ar 28.4864 4.06949 16.278
461 1 Ar 28.4864 4.06949 20.3474
462 1 Ar 28.4864 4.06949 24.4169
463 1 Ar 28.4864 4.06949 28.4864
464 1 Ar 28.4864 8.13898 0
465 1 Ar 28.4864 8.13898 4.06949
466 1 Ar 28.4864 8.13898 8.13898
467 1 Ar 28.4864 8.13898 12.2085
468 1 Ar 28.4864 8.13898 16.278
469 1 Ar 28.4864 8.13898 20.3474
470 1 Ar 28.4864 8.13898 24.4169
471 1 Ar 28.4864 8.13898 28.4864
472 1 Ar 28.4864 12.2085 0
473 1 Ar 28.4864 12.2085 4.06949
474 1 Ar 28.4864 12.2085 8.13898
475 1 Ar 28.4864 12.2085 12.2085
476 1 Ar 28.4864 12.2085 16.278
477 1 Ar 28.4864 12.2085 20.3474
478 1 Ar 28.4864 12.2085 24.4169
479 1 Ar 28.4864 12.2085 28.4864
480 1 Ar 28.4864 16.278 0
481 1 Ar 28.4864 16.278 4.06949
482 1 Ar 28.4864 16.278 8.13898
483 1 Ar 28.4864 16.278 12.2085
484 1 Ar 28.4864 16.278 16.278
485 1 Ar 28.4864 16.278 20.3474
486 1 Ar 28.4864 16.278 24.4169
487 1 Ar 28.4864 16.278 28.4864
488 1 Ar 28.4864 20.3474 0
489 1 Ar 28.4864 20.3474 4.06949
490 1 Ar 28.4864 20.3474 8.13898
491 1 Ar 28.4864 20.3474 12.2085
492 1 Ar 28.4864 20.3474 16.278
493 1 Ar 28.4864 20.3474 20.3474
494 1 Ar 28.4864 20.3474 24.4169
495 1 Ar 28.4864 20.3474 28.4864
496 1 Ar 28.4864 24.4169 0
497 1 Ar 28.4864 24.4169 4.06949
498 1 Ar 28.4864 24.4169 8.13898
499 1 Ar 28.4864 24.4169 12.2085
ITEM: TIMESTEP
19999
ITEM: NUMBER OF ATOMS
500
ITEM: BOX BOUNDS pp pp pp
0 36.6254
0 36.6254
0 36.6254
ITEM: ATOMS id type element xu yu zu
0 1 Ar 35.5999 0.282923 36.298
1 1 Ar 33.8503 2.41611 2.01641
2 1 Ar 0.704948 0.586465 9.94518
3 1 Ar 1.05885 35.4975 13.8444
4 1 Ar 2.16834 1.58988 15.9036
5 1 Ar 36.4037 0.644405 19.1943
6 1 Ar 34.7012 35.8469 25.3307
7 1 Ar 3.13791 0.321108 31.7041
8 1 Ar 34.8819 4.39325 36.1071
9 1 Ar 35.9696 3.53719 5.56964
10 1 Ar 0.20483 3.85598 8.93013
11 1 Ar 33.7788 0.0284891 10.9443
12 1 Ar 2.06944 6.15179 17.1395
13 1 Ar 34.8345 4.23242 20.2139
14 1 Ar 36.4792 4.85362 24.2688
15 1 Ar 33.9416 3.75463 27.104
16 1 Ar 1.10892 7.95966 0.272234
17 1 Ar 36.4962 6.45544 3.78502
18 1 Ar 33.5338 5.45482 10.2531
19 1 Ar 34.3995 1.98229 16.541
20 1 Ar 34.8793 7.4226 13.7052
21 1 Ar 0.0789416 8.05488 22.2397
22 1 Ar 1.88084 10.2311 26.0341
23 1 Ar 0.286017 6.96452 28.0027
24 1 Ar 30.1487 15.2308 34.086
25 1 Ar 0.882101 12.1246 4.19532
26 1 Ar 32.9057 13.6105 8.78164
27 1 Ar 35.4292 12.027 12.422
28 1 Ar 31.6757 12.9084 15.5276
29 1 Ar 34.8796 10.9947 20.2358
30 1 Ar 34.7225 15.7493 26.1399
31 1 Ar 3.56549 12.5232 29.4967
32 1 Ar 1.55547 13.5105 36.5393
33 1 Ar 35.6562 15.0246 5.64891
34 1 Ar 1.77419 14.2237 8.16407
35 1 Ar 0.263344 16.9325 11.5361
36 1 Ar 0.560693 17.5814 15.554
37 1 Ar 34.1203 14.1608 18.5115
38 1 Ar 36.5099 16.3858 22.4973
39 1 Ar 0.998059 15.4991 27.5804
40 1 Ar 3.31376 21.6533 34.7848
41 1 Ar 36.1136 24.9483 31.8376
42 1 Ar 0.134697 19.1868 6.38142
43 1 Ar 34.2506 21.8036 10.2181
44 1 Ar 35.5372 20.5202 16.1299
45 1 Ar 35.5819 17.72 18.3882
46 1 Ar 1.76228 20.823 24.9848
47 1 Ar 32.7816 17.2954 31.6066
48 1 Ar 0.254607 25.8669 1.58576
49 1 Ar 34.4327 24.3779 3.39741
50 1 Ar 33.1634 26.2641 7.31479
51 1 Ar 0.477904 26.8931 12.0623
52 1 Ar 34.4191 22.5957 18.8193
53 1 Ar 0.0874363 25.7133 21.1653
54 1 Ar 35.2409 22.5822 25.4717
55 1 Ar 1.88088 22.9649 27.6483
56 1 Ar 34.1 27.0862 34.9859
57 1 Ar 0.710669 27.0071 5.25504
58 1 Ar 31.9906 30.7455 6.01853
59 1 Ar 3.50568 28.7215 10.5302
60 1 Ar 0.82246 27.0833 16.3993
61 1 Ar 1.53414 29.9188 20.8632
62 1 Ar 35.1082 28.9544 22.4079
63 1 Ar 32.3742 21.0103 32.019
64 1 Ar 4.33906 32.2608 6.52454
65 1 Ar 2.54192 0.502002 1.67807
66 1 Ar 3.99216 1.28659 6.74581
67 1 Ar 4.37027 36.3738 12.1917
68 1 Ar 4.90616 35.4453 15.944
69 1 Ar 2.80907 35.2583 19.2936
70 1 Ar 5.10446 0.0989303 23.2463
71 1 Ar 1.98573 0.728284 26.0293
72 1 Ar 1.74349 3.84373 0.511899
73 1 Ar 3.01106 4.27599 5.55944
74 1 Ar 4.24188 3.79611 9.76538
75 1 Ar 1.34653 4.74001 12.5267
76 1 Ar 5.24858 2.55341 14.6768
77 1 Ar 5.70149 2.66658 20.5198
78 1 Ar 3.85859 3.45973 24.0393
79 1 Ar 4.4565 3.7608 27.4092
80 1 Ar 4.34123 6.62555 36.3719
81 1 Ar 2.75859 9.3929 3.01581
82 1 Ar 3.0846 7.33334 7.03436
83 1 Ar 2.73499 8.11842 12.5806
84 1 Ar 4.08854 11.1627 15.4286
85 1 Ar 3.0863 5.28583 21.0739
86 1 Ar 5.0381 6.62937 25.0266
87 1 Ar 4.171 4.92498 32.2049
88 1 Ar 5.46624 10.3255 35.6616
89 1 Ar 5.4126 12.8975 2.46588
90 1 Ar 3.03919 10.774 9.0749
91 1 Ar 5.39702 12.0082 11.5235
92 1 Ar 1.9038 13.9854 15.3119
93 1 Ar 4.66944 9.0237 18.8422
94 1 Ar 4.92386 10.8164 23.8696
95 1 Ar 2.70652 11.4608 33.947
96 1 Ar 4.24594 17.9486 34.6933
97 1 Ar 5.29588 14.5757 5.87094
98 1 Ar 6.68498 18.3099 10.6367
99 1 Ar 3.7946 15.7557 12.8668
100 1 Ar 4.13252 16.3933 17.2478
101 1 Ar 3.23338 14.5035 20.5472
102 1 Ar 3.73102 18.2065 25.1706
103 1 Ar 7.80812 16.8383 26.0527
104 1 Ar 4.06462 19.9426 1.79269
105 1 Ar 3.99008 20.1763 5.80703
106 1 Ar 3.03498 19.0843 9.40704
107 1 Ar 2.28348 20.5833 13.0536
108 1 Ar 3.56685 19.7616 16.177
109 1 Ar 3.82825 18.3926 20.5596
110 1 Ar 5.38154 20.8428 23.5494
111 1 Ar 6.59648 23.1821 26.5528
112 1 Ar 5.02977 22.8657 0.759151
113 1 Ar 3.49231 24 3.52826
114 1 Ar 1.70361 23.4361 9.29945
115 1 Ar 4.24836 24.1906 11.3743
116 1 Ar 3.11253 24.7504 14.6905
117 1 Ar 2.12492 22.3906 20.3928
118 1 Ar 4.32912 25.8148 22.4139
119 1 Ar 2.50566 27.4565 28.6923
120 1 Ar 0.564619 29.4054 2.40056
121 1 Ar 4.21456 27.0049 4.41141
122 1 Ar 6.16426 31.4649 11.0644
123 1 Ar 4.32099 25.9779 8.07265
124 1 Ar 4.53216 28.2585 14.6318
125 1 Ar 3.02314 26.7186 19.0882
126 1 Ar 0.512908 33.7066 22.6856
127 1 Ar 6.00172 33.3433 24.8468
128 1 Ar 7.20356 3.03801 33.3
129 1 Ar 8.84314 35.2465 4.32422
130 1 Ar 8.06193 0.542623 8.95149
131 1 Ar 11.8003 33.5474 13.0734
132 1 Ar 8.47924 0.254433 16.8527
133 1 Ar 8.72549 0.577532 20.5141
134 1 Ar 8.15716 36.0629 25.1321
135 1 Ar 9.07245 2.0511 30.2658
136 1 Ar 8.30444 3.08332 1.00049
137 1 Ar 7.45293 4.33851 4.12612
138 1 Ar 7.80551 4.18654 8.068
139 1 Ar 7.7018 5.05493 11.9692
140 1 Ar 9.73789 3.92909 15.5471
141 1 Ar 8.02155 4.52807 18.9927
142 1 Ar 7.43528 3.80925 24.6515
143 1 Ar 7.94537 5.50359 30.3351
144 1 Ar 7.87329 6.60492 35.4302
145 1 Ar 8.38997 9.86375 3.38062
146 1 Ar 7.43783 7.76967 8.54598
147 1 Ar 6.53103 8.49218 14.1784
148 1 Ar 6.51322 6.92681 17.2041
149 1 Ar 5.91093 8.22215 22.3045
150 1 Ar 9.38427 6.95858 23.7289
151 1 Ar 5.89878 8.54862 27.7496
152 1 Ar 7.07886 14.3684 34.1966
153 1 Ar 12.0531 11.005 5.95444
154 1 Ar 6.60359 11.6326 7.34645
155 1 Ar 9.71564 11.1815 11.6066
156 1 Ar 9.58425 10.6477 15.5465
157 1 Ar 8.4862 10.4567 18.7407
158 1 Ar 8.41105 11.0863 25.2894
159 1 Ar 7.0296 12.7681 28.3025
160 1 Ar 10.4642 17.9501 35.7159
161 1 Ar 7.66438 17.448 2.78265
162 1 Ar 8.29707 17.6466 7.48798
163 1 Ar 8.95405 16.7722 14.0913
164 1 Ar 6.65987 14.0949 18.7032
165 1 Ar 8.37548 15.9568 21.6781
166 1 Ar 6.88983 14.1735 24.3542
167 1 Ar 8.48865 16.2594 30.3285
168 1 Ar 8.88933 22.133 0.24983
169 1 Ar 7.25708 21.1921 3.19952
170 1 Ar 7.51491 21.1966 8.50726
171 1 Ar 7.49147 21.0663 13.0184
172 1 Ar 6.69377 18.9135 15.6833
173 1 Ar 7.34505 18.8003 18.98
174 1 Ar 10.3535 19.0097 25.3568
175 1 Ar 6.84403 21.2668 30.1204
176 1 Ar 8.90245 26.2168 0.894414
177 1 Ar 7.23984 23.8365 5.59479
178 1 Ar 7.54316 24.5582 9.28346
179 1 Ar 9.73621 26.272 11.7369
180 1 Ar 7.21425 23.7917 14.9887
181 1 Ar 6.33614 22.1327 20.8843
182 1 Ar 8.78859 21.9139 23.5301
183 1 Ar 8.6212 28.1129 29.96
184 1 Ar 13.7812 26.595 30.7479
185 1 Ar 7.97388 28.5075 4.419
186 1 Ar 8.43269 29.0565 8.89443
187 1 Ar 6.5387 27.7125 11.4626
188 1 Ar 8.26875 28.0108 14.7366
189 1 Ar 7.73628 30.7364 21.8288
190 1 Ar 5.08815 28.0222 25.4129
191 1 Ar 7.70885 30.2781 27.1348
192 1 Ar 12.7209 5.32292 35.3277
193 1 Ar 13.5453 35.9725 5.46048
194 1 Ar 12.7004 2.29179 7.20835
195 1 Ar 12.2732 1.84256 11.658
196 1 Ar 11.6949 0.91099 15.2985
197 1 Ar 13.5812 1.11614 19.7227
198 1 Ar 13.5498 34.6362 22.403
199 1 Ar 12.2943 35.0426 29.3026
200 1 Ar 17.8442 3.56665 36.0259
201 1 Ar 12.3231 3.78037 3.59212
202 1 Ar 13.7476 4.98402 10.3082
203 1 Ar 10.9964 4.70721 12.5461
204 1 Ar 13.1636 3.97151 16.6463
205 1 Ar 11.7806 4.19089 20.6044
206 1 Ar 13.6106 2.23434 26.067
207 1 Ar 13.9726 3.86505 30.925
208 1 Ar 11.1747 7.35061 1.18569
209 1 Ar 12.91 7.41602 5.59225
210 1 Ar 12.0117 8.16798 10.1305
211 1 Ar 11.3397 7.95665 13.5527
212 1 Ar 12.0782 7.49467 16.7707
213 1 Ar 12.0402 10.3892 19.257
214 1 Ar 12.9198 6.1872 24.2711
215 1 Ar 11.5769 7.75627 27.7526
216 1 Ar 10.9705 11.8039 0.416804
217 1 Ar 14.8728 8.89802 2.79216
218 1 Ar 9.35394 13.917 8.59705
219 1 Ar 13.4667 13.0973 9.10367
220 1 Ar 12.1137 12.8364 13.6428
221 1 Ar 16.254 10.5873 17.8056
222 1 Ar 11.3417 12.4888 24.2632
223 1 Ar 12.5221 11.1566 29.1623
224 1 Ar 13.5852 17.1307 36.4896
225 1 Ar 11.2432 18.2372 2.43181
226 1 Ar 12.2969 16.6691 7.10176
227 1 Ar 13.7307 18.458 13.351
228 1 Ar 9.79926 15.7894 17.7946
229 1 Ar 12.1594 14.2244 20.7034
230 1 Ar 13.837 16.8789 23.5151
231 1 Ar 9.9857 14.3166 28.0081
232 1 Ar 12.8418 20.7276 0.607892
233 1 Ar 11.1956 19.7852 5.98364
234 1 Ar 13.7471 20.7562 9.94799
235 1 Ar 10.9355 20.5099 12.298
236 1 Ar 12.0745 20.7374 16.2054
237 1 Ar 10.7299 19.7781 19.495
238 1 Ar 14.2579 21.4834 22.352
239 1 Ar 10.394 20.6803 32.7654
240 1 Ar 11.6345 23.9385 35.4584
241 1 Ar 11.911 28.0555 8.13768
242 1 Ar 10.9783 23.833 9.02961
243 1 Ar 11.1727 24.7101 15.5897
244 1 Ar 13.7437 23.7458 17.7756
245 1 Ar 12.5049 24.2636 21.3615
246 1 Ar 12.0503 22.8985 25.5136
247 1 Ar 11.0655 23.5068 29.2737
248 1 Ar 13.1899 23.6235 3.42995
249 1 Ar 11.4254 31.0481 5.24097
250 1 Ar 12.4226 32.4238 8.55876
251 1 Ar 12.3485 29.5704 12.6409
252 1 Ar 11.1732 30.0646 17.3102
253 1 Ar 11.8458 30.5635 22.2057
254 1 Ar 9.54032 32.0065 24.9085
255 1 Ar 12.3648 29.838 28.4329
256 1 Ar 19.1526 32.7332 36.3137
257 1 Ar 16.9264 1.28157 3.27546
258 1 Ar 16.4509 35.6328 8.24329
259 1 Ar 18.2032 0.431027 12.7112
260 1 Ar 15.0458 36.4429 14.5211
261 1 Ar 14.1685 1.86484 22.7906
262 1 Ar 15.7212 36.2089 25.7593
263 1 Ar 16.1483 0.784575 30.4557
264 1 Ar 23.6641 6.62956 30.9617
265 1 Ar 19.5433 4.48011 3.36553
266 1 Ar 15.8792 4.87288 6.10266
267 1 Ar 16.0496 3.67721 12.8856
268 1 Ar 17.1846 3.45506 16.9904
269 1 Ar 17.2017 3.94648 20.4016
270 1 Ar 16.4046 5.61474 23.5231
271 1 Ar 12.1511 10.3892 33.6614
272 1 Ar 17.1059 8.96866 35.8753
273 1 Ar 18.5016 8.3535 5.19037
274 1 Ar 15.2405 9.62793 9.26676
275 1 Ar 15.8038 9.15856 12.7103
276 1 Ar 16.2245 7.55346 16.0334
277 1 Ar 16.2652 7.78603 20.3662
278 1 Ar 16.175 9.39033 25.0381
279 1 Ar 14.9023 7.10416 28.9472
280 1 Ar 15.7208 7.03898 33.2991
281 1 Ar 16.4823 12.4043 3.61475
282 1 Ar 16.7677 12.282 7.42339
283 1 Ar 17.0382 13.6181 11.0457
284 1 Ar 15.8915 12.4168 14.7474
285 1 Ar 14.1265 9.48706 22.2017
286 1 Ar 16.9378 12.9621 22.582
287 1 Ar 15.667 13.084 27.096
288 1 Ar 16.4131 17.3137 33.0895
289 1 Ar 18.1604 15.1948 5.03546
290 1 Ar 15.6032 15.7022 8.08435
291 1 Ar 17.6943 17.0855 11
292 1 Ar 16.0803 16.1955 14.6232
293 1 Ar 16.0345 17.2648 19.929
294 1 Ar 15.7678 16.9498 26.2689
295 1 Ar 13.5114 15.6321 33.2583
296 1 Ar 15.1656 22.3808 34.4884
297 1 Ar 14.3438 20.0299 4.08779
298 1 Ar 17.4323 20.3949 9.73623
299 1 Ar 16.4429 20.2512 13.0382
300 1 Ar 15.4884 20.8377 16.8495
301 1 Ar 16.7352 20.7565 19.8309
302 1 Ar 18.0304 20.5203 23.2612
303 1 Ar 17.7574 21.9358 28.3431
304 1 Ar 16.6571 24.9841 1.38077
305 1 Ar 15.4575 25.8798 4.65752
306 1 Ar 14.742 23.1006 7.05101
307 1 Ar 16.4401 23.9731 12.0405
308 1 Ar 17.2502 24.3804 15.2044
309 1 Ar 17.0981 24.2606 18.8672
310 1 Ar 16.002 24.1267 25.336
311 1 Ar 14.0145 19.7453 27.674
312 1 Ar 20.9622 29.3453 35.5894
313 1 Ar 15.8473 30.2864 7.35966
314 1 Ar 15.8312 27.3853 10.0984
315 1 Ar 17.3489 27.9928 14.3878
316 1 Ar 15.0151 33.1799 16.588
317 1 Ar 14.3052 28.4042 17.5559
318 1 Ar 17.8539 30.3002 24.8641
319 1 Ar 16.4486 30.1421 32.7821
320 1 Ar 20.9327 35.4685 35.5303
321 1 Ar 19.9708 36.4908 5.05329
322 1 Ar 20.1512 0.611357 9.10431
323 1 Ar 21.3935 35.0841 13.2661
324 1 Ar 20.7337 36.5846 17.146
325 1 Ar 17.5776 35.3681 19.7319
326 1 Ar 18.99 0.834481 24.3005
327 1 Ar 18.926 36.6148 28.6553
328 1 Ar 20.174 1.4335 1.81717
329 1 Ar 22.2105 6.24075 5.12297
330 1 Ar 21.3564 5.02239 8.29418
331 1 Ar 21.8651 2.5888 11.7497
332 1 Ar 19.9142 3.60382 14.7814
333 1 Ar 20.6712 2.79243 19.6229
334 1 Ar 21.0494 5.66693 25.7665
335 1 Ar 19.3046 4.12454 29.5167
336 1 Ar 19.5688 7.22781 34.6435
337 1 Ar 20.8969 7.38274 1.73802
338 1 Ar 19.6804 8.28025 8.75576
339 1 Ar 18.6686 7.38134 11.8503
340 1 Ar 19.2734 9.30921 14.5745
341 1 Ar 20.6582 7.39307 16.9795
342 1 Ar 19.136 7.49282 22.1774
343 1 Ar 19.7183 8.24405 27.8768
344 1 Ar 20.2084 12.2839 0.747419
345 1 Ar 20.0934 11.4557 3.99896
346 1 Ar 20.1931 12.4259 8.57522
347 1 Ar 21.2098 11.5811 13.1311
348 1 Ar 21.4771 11.3599 17.6616
349 1 Ar 18.9424 11.4375 20.3556
350 1 Ar 20.5515 11.0938 24.2122
351 1 Ar 22.6136 10.1625 31.6332
352 1 Ar 21.059 18.0889 34.2195
353 1 Ar 21.7304 15.1088 4.17219
354 1 Ar 21.4546 16.4185 8.71103
355 1 Ar 19.497 14.9725 14.0606
356 1 Ar 18.2175 13.8492 18.0961
357 1 Ar 21.659 15 19.1748
358 1 Ar 18.7694 17.2481 24.54
359 1 Ar 20.2857 19.4978 30.4408
360 1 Ar 17.43 16.4486 1.51087
361 1 Ar 17.6871 21.8248 5.08724
362 1 Ar 20.8684 20.2777 8.9406
363 1 Ar 21.2433 21.2038 12.6488
364 1 Ar 20.2122 21.3093 16.232
365 1 Ar 19.8437 19.1805 20.1207
366 1 Ar 22.3532 19.6324 23.4959
367 1 Ar 25.831 17.2763 34.0058
368 1 Ar 19.4905 22.6233 0.685075
369 1 Ar 20.1188 25.2424 5.11051
370 1 Ar 18.2882 24.6495 8.09742
371 1 Ar 19.9937 24.9979 12.295
372 1 Ar 20.4664 25.4833 16.9494
373 1 Ar 20.7103 22.982 21.7544
374 1 Ar 21.568 21.4462 27.2125
375 1 Ar 17.2267 25.4704 28.5277
376 1 Ar 21.1239 26.0363 35.2673
377 1 Ar 16.333 30.6748 2.73466
378 1 Ar 19.4023 28.9714 7.20846
379 1 Ar 21.8675 27.5144 13.516
380 1 Ar 23.9303 28.6056 17.1381
381 1 Ar 17.9431 27.8158 20.116
382 1 Ar 19.779 24.2292 25.4806
383 1 Ar 21.7156 24.6642 28.7453
384 1 Ar 25.6405 1.71869 32.7553
385 1 Ar 21.7355 32.145 4.05137
386 1 Ar 20.5812 32.0804 9.88817
387 1 Ar 25.4796 0.433209 13.3299
388 1 Ar 23.6828 34.663 15.9531
389 1 Ar 24.2267 1.13168 18.4158
390 1 Ar 22.3006 2.25339 23.2863
391 1 Ar 22.713 32.7332 33.1669
392 1 Ar 24.3689 0.319119 0.162034
393 1 Ar 24.8851 1.3958 3.81472
394 1 Ar 22.1192 1.94949 6.76784
395 1 Ar 23.5559 2.47806 14.8771
396 1 Ar 24.7873 5.71921 17.314
397 1 Ar 24.6497 4.14876 20.8038
398 1 Ar 25.006 3.83832 24.8829
399 1 Ar 24.6782 3.31507 28.7412
400 1 Ar 28.4782 7.71026 1.09999
401 1 Ar 26.9375 10.564 5.04648
402 1 Ar 24.1198 9.59157 6.55903
403 1 Ar 22.6422 5.98875 14.2538
404 1 Ar 23.9484 9.34424 16.8295
405 1 Ar 25.1687 7.74927 20.1565
406 1 Ar 22.6071 8.06046 22.8119
407 1 Ar 24.1875 7.44371 26.4349
408 1 Ar 22.2763 12.2449 34.3522
409 1 Ar 24.1077 12.7846 3.37972
410 1 Ar 23.4228 13.6359 7.36551
411 1 Ar 24.0462 12.1414 10.2255
412 1 Ar 24.2306 13.0785 15.7415
413 1 Ar 23.5312 11.4326 20.66
414 1 Ar 24.5694 11.1998 24.7389
415 1 Ar 24.3461 12.2642 29.448
416 1 Ar 24.1528 17.5249 0.870792
417 1 Ar 25.8801 16.8116 4.31867
418 1 Ar 24.9843 17.1252 8.05647
419 1 Ar 24.4548 15.9894 11.4967
420 1 Ar 23.9266 17.2717 17.5452
421 1 Ar 27.1005 13.3115 21.536
422 1 Ar 23.5551 15.9411 25.4854
423 1 Ar 21.9534 14.9887 31.2105
424 1 Ar 21.7143 21.8486 32.7466
425 1 Ar 24.0885 20.2399 2.80055
426 1 Ar 26.6076 21.0812 8.76096
427 1 Ar 22.6416 17.503 13.9504
428 1 Ar 25.7495 19.8261 16.4385
429 1 Ar 25.2785 20.5633 20.2198
430 1 Ar 26.1289 20.3288 24.2574
431 1 Ar 24.1343 19.4751 29.7692
432 1 Ar 23.2424 23.2761 36.2485
433 1 Ar 25.6322 23.5301 3.09394
434 1 Ar 23.8087 29.6411 1.11073
435 1 Ar 23.6143 22.6538 10.5092
436 1 Ar 24.3856 23.961 14.5967
437 1 Ar 24.0524 23.8987 22.369
438 1 Ar 23.2765 24.1779 25.634
439 1 Ar 30.1737 22.0944 28.759
440 1 Ar 24.4604 27.153 34.0831
441 1 Ar 25.5363 31.7291 4.44864
442 1 Ar 22.0049 28.2946 9.31558
443 1 Ar 25.9624 28.0941 11.9811
444 1 Ar 26.1659 24.4152 19.7627
445 1 Ar 31.9851 30.5335 21.3571
446 1 Ar 27.212 34.2475 20.3003
447 1 Ar 22.5638 30.6437 20.6182
448 1 Ar 32.2633 1.70406 35.3085
449 1 Ar 27.7856 5.25722 9.0468