ITEM: TIMESTEP
-1
ITEM: NUMBER OF ATOMS
500
ITEM: BOX BOUNDS pp pp pp
0 30.3927
0 30.3927
0 30.3927
ITEM: ATOMS id type element xu yu zu
0 1 Ar 0 0 0
1 1 Ar 0 0 3.37697
2 1 Ar 0 0 6.75394
3 1 Ar 0 0 10.1309
4 1 Ar 0 0 13.5079
5 1 Ar 0 0 16.8848
6 1 Ar 0 0 20.2618
7 1 Ar 0 0 23.6388
8 1 Ar 0 3.37697 0
9 1 Ar 0 3.37697 3.37697
10 1 Ar 0 3.37697 6.75394
11 1 Ar 0 3.37697 10.1309
12 1 Ar 0 3.37697 13.5079
13 1 Ar 0 3.37697 16.8848
14 1 Ar 0 3.37697 20.2618
15 1 Ar 0 3.37697 23.6388
16 1 Ar 0 6.75394 0
17 1 Ar 0 6.75394 3.37697
18 1 Ar 0 6.75394 6.75394
19 1 Ar 0 6.75394 10.1309
20 1 Ar 0 6.75394 13.5079
21 1 Ar 0 6.75394 16.8848
22 1 Ar 0 6.75394 20.2618
23 1 Ar 0 6.75394 23.6388
24 1 Ar 0 10.1309 0
25 1 Ar 0 10.1309 3.37697
26 1 Ar 0 10.1309 6.75394
27 1 Ar 0 10.1309 10.1309
28 1 Ar 0 10.1309 13.5079
29 1 Ar 0 10.1309 16.8848
30 1 Ar 0 10.1309 20.2618
31 1 Ar 0 10.1309 23.6388
32 1 Ar 0 13.5079 0
33 1 Ar 0 13.5079 3.37697
34 1 Ar 0 13.5079 6.75394
35 1 Ar 0 13.5079 10.1309
36 1 Ar 0 13.5079 13.5079
37 1 Ar 0 13.5079 16.8848
38 1 Ar 0 13.5079 20.2618
39 1 Ar 0 13.5079 23.6388
40 1 Ar 0 16.8848 0
41 1 Ar 0 16.8848 3.37697
42 1 Ar 0 16.8848 6.75394
43 1 Ar 0 16.8848 10.1309
44 1 Ar 0 16.8848 13.5079
45 1 Ar 0 16.8848 16.8848
46 1 Ar 0 16.8848 20.2618
47 1 Ar 0 16.8848 23.6388
48 1 Ar 0 20.2618 0
49 1 Ar 0 20.2618 3.37697
50 1 Ar 0 20.2618 6.75394
51 1 Ar 0 20.2618 10.1309
52 1 Ar 0 20.2618 13.5079
53 1 Ar 0 20.2618 16.8848
54 1 Ar 0 20.2618 20.2618
55 1 Ar 0 20.2618 23.6388
56 1 Ar 0 23.6388 0
57 1 Ar 0 23.6388 3.37697
58 1 Ar 0 23.6388 6.75394
59 1 Ar 0 23.6388 10.1309
60 1 Ar 0 23.6388 13.5079
61 1 Ar 0 23.6388 16.8848
62 1 Ar 0 23.6388 20.2618
63 1 Ar 0 23.6388 23.6388
64 1 Ar 3.37697 0 0
65 1 Ar 3.37697 0 3.37697
66 1 Ar 3.37697 0 6.75394
67 1 Ar 3.37697 0 10.1309
68 1 Ar 3.37697 0 13.5079
69 1 Ar 3.37697 0 16.8848
70 1 Ar 3.37697 0 20.2618
71 1 Ar 3.37697 0 23.6388
72 1 Ar 3.37697 3.37697 0
73 1 Ar 3.37697 3.37697 3.37697
74 1 Ar 3.37697 3.37697 6.75394
75 1 Ar 3.37697 3.37697 10.1309
76 1 Ar 3.37697 3.37697 13.5079
77 1 Ar 3.37697 3.37697 16.8848
78 1 Ar 3.37697 3.37697 20.2618
79 1 Ar 3.37697 3.37697 23.6388
80 1 Ar 3.37697 6.75394 0
81 1 Ar 3.37697 6.75394 3.37697
82 1 Ar 3.37697 6.75394 6.75394
83 1 Ar 3.37697 6.75394 10.1309
84 1 Ar 3.37697 6.75394 13.5079
85 1 Ar 3.37697 6.75394 16.8848
86 1 Ar 3.37697 6.75394 20.2618
87 1 Ar 3.37697 6.75394 23.6388
88 1 Ar 3.37697 10.1309 0
89 1 Ar 3.37697 10.1309 3.37697
90 1 Ar 3.37697 10.1309 6.75394
91 1 Ar 3.37697 10.1309 10.1309
92 1 Ar 3.37697 10.1309 13.5079
93 1 Ar 3.37697 10.1309 16.8848
94 1 Ar 3.37697 10.1309 20.2618
95 1 Ar 3.37697 10.1309 23.6388
96 1 Ar 3.37697 13.5079 0
97 1 Ar 3.37697 13.5079 3.37697
98 1 Ar 3.37697 13.5079 6.75394
99 1 Ar 3.37697 13.5079 10.1309
100 1 Ar 3.37697 13.5079 13.5079
101 1 Ar 3.37697 13.5079 16.8848
102 1 Ar 3.37697 13.5079 20.2618
103 1 Ar 3.37697 13.5079 23.6388
104 1 Ar 3.37697 16.8848 0
105 1 Ar 3.37697 16.8848 3.37697
106 1 Ar 3.37697 16.8848 6.75394
107 1 Ar 3.37697 16.8848 10.1309
108 1 Ar 3.37697 16.8848 13.5079
109 1 Ar 3.37697 16.8848 16.8848
110 1 Ar 3.37697 16.8848 20.2618
111 1 Ar 3.37697 16.8848 23.6388
112 1 Ar 3.37697 20.2618 0
113 1 Ar 3.37697 20.2618 3.37697
114 1 Ar 3.37697 20.2618 6.75394
115 1 Ar 3.37697 20.2618 10.1309
116 1 Ar 3.37697 20.2618 13.5079
117 1 Ar 3.37697 20.2618 16.8848
118 1 Ar 3.37697 20.2618 20.2618
119 1 Ar 3.37697 20.2618 23.6388
120 1 Ar 3.37697 23.6388 0
121 1 Ar 3.37697 23.6388 3.37697
122 1 Ar 3.37697 23.6388 6.75394
123 1 Ar 3.37697 23.6388 10.1309
124 1 Ar 3.37697 23.6388 13.5079
125 1 Ar 3.37697 23.6388 16.8848
126 1 Ar 3.37697 23.6388 20.2618
127 1 Ar 3.37697 23.6388 23.6388
128 1 Ar 6.75394 0 0
129 1 Ar 6.75394 0 3.37697
130 1 Ar 6.75394 0 6.75394
131 1 Ar 6.75394 0 10.1309
132 1 Ar 6.75394 0 13.5079
133 1 Ar 6.75394 0 16.8848
134 1 Ar 6.75394 0 20.2618
135 1 Ar 6.75394 0 23.6388
136 1 Ar 6.75394 3.37697 0
137 1 Ar 6.75394 3.37697 3.37697
138 1 Ar 6.75394 3.37697 6.75394
139 1 Ar 6.75394 3.37697 10.1309
140 1 Ar 6.75394 3.37697 13.5079
141 1 Ar 6.75394 3.37697 16.8848
142 1 Ar 6.75394 3.37697 20.2618
143 1 Ar 6.75394 3.37697 23.6388
144 1 Ar 6.75394 6.75394 0
145 1 Ar 6.75394 6.75394 3.37697
146 1 Ar 6.75394 6.75394 6.75394
147 1 Ar 6.75394 6.75394 10.1309
148 1 Ar 6.75394 6.75394 13.5079
149 1 Ar 6.75394 6.75394 16.8848
150 1 Ar 6.75394 6.75394 20.2618
151 1 Ar 6.75394 6.75394 23.6388
152 1 Ar 6.75394 10.1309 0
153 1 Ar 6.75394 10.1309 3.37697
154 1 Ar 6.75394 10.1309 6.75394
155 1 Ar 6.75394 10.1309 10.1309
156 1 Ar 6.75394 10.1309 13.5079
157 1 Ar 6.75394 10.1309 16.8848
158 1 Ar 6.75394 10.1309 20.2618
159 1 Ar 6.75394 10.1309 23.6388
160 1 Ar 6.75394 13.5079 0
161 1 Ar 6.75394 13.5079 3.37697
162 1 Ar 6.75394 13.5079 6.75394
163 1 Ar 6.75394 13.5079 10.1309
164 1 Ar 6.75394 13.5079 13.5079
165 1 Ar 6.75394 13.5079 16.8848
166 1 Ar 6.75394 13.5079 20.2618
167 1 Ar 6.75394 13.5079 23.6388
168 1 Ar 6.75394 16.8848 0
169 1 Ar 6.75394 16.8848 3.37697
170 1 Ar 6.75394 16.8848 6.75394
171 1 Ar 6.75394 16.8848 10.1309
172 1 Ar 6.75394 16.8848 13.5079
173 1 Ar 6.75394 16.8848 16.8848
174 1 Ar 6.75394 16.8848 20.2618
175 1 Ar 6.75394 16.8848 23.6388
176 1 Ar 6.75394 20.2618 0
177 1 Ar 6.75394 20.2618 3.37697
178 1 Ar 6.75394 20.2618 6.75394
179 1 Ar 6.75394 20.2618 10.1309
180 1 Ar 6.75394 20.2618 13.5079
181 1 Ar 6.75394 20.2618 16.8848
182 1 Ar 6.75394 20.2618 20.2618
183 1 Ar 6.75394 20.2618 23.6388
184 1 Ar 6.75394 23.6388 0
185 1 Ar 6.75394 23.6388 3.37697
186 1 Ar 6.75394 23.6388 6.75394
187 1 Ar 6.75394 23.6388 10.1309
188 1 Ar 6.75394 23.6388 13.5079
189 1 Ar 6.75394 23.6388 16.8848
190 1 Ar 6.75394 23.6388 20.2618
191 1 Ar 6.75394 23.6388 23.6388
192 1 Ar 10.1309 0 0
193 1 Ar 10.1309 0 3.37697
194 1 Ar 10.1309 0 6.75394
195 1 Ar 10.1309 0 10.1309
196 1 Ar 10.1309 0 13.5079
197 1 Ar 10.1309 0 16.8848
198 1 Ar 10.1309 0 20.2618
199 1 Ar 10.1309 0 23.6388
200 1 Ar 10.1309 3.37697 0
201 1 Ar 10.1309 3.37697 3.37697
202 1 Ar 10.1309 3.37697 6.75394
203 1 Ar 10.1309 3.37697 10.1309
204 1 Ar 10.1309 3.37697 13.5079
205 1 Ar 10.1309 3.37697 16.8848
206 1 Ar 10.1309 3.37697 20.2618
207 1 Ar 10.1309 3.37697 23.6388
208 1 Ar 10.1309 6.75394 0
209 1 Ar 10.1309 6.75394 3.37697
210 1 Ar 10.1309 6.75394 6.75394
211 1 Ar 10.1309 6.75394 10.1309
212 1 Ar 10.1309 6.75394 13.5079
213 1 Ar 10.1309 6.75394 16.8848
214 1 Ar 10.1309 6.75394 20.2618
215 1 Ar 10.1309 6.75394 23.6388
216 1 Ar 10.1309 10.1309 0
217 1 Ar 10.1309 10.1309 3.37697
218 1 Ar 10.1309 10.1309 6.75394
219 1 Ar 10.1309 10.1309 10.1309
220 1 Ar 10.1309 10.1309 13.5079
221 1 Ar 10.1309 10.1309 16.8848
222 1 Ar 10.1309 10.1309 20.2618
223 1 Ar 10.1309 10.1309 23.6388
224 1 Ar 10.1309 13.5079 0
225 1 Ar 10.1309 13.5079 3.37697
226 1 Ar 10.1309 13.5079 6.75394
227 1 Ar 10.1309 13.5079 10.1309
228 1 Ar 10.1309 13.5079 13.5079
229 1 Ar 10.1309 13.5079 16.8848
230 1 Ar 10.1309 13.5079 20.2618
231 1 Ar 10.1309 13.5079 23.6388
232 1 Ar 10.1309 16.8848 0
233 1 Ar 10.1309 16.8848 3.37697
234 1 Ar 10.1309 16.8848 6.75394
235 1 Ar 10.1309 16.8848 10.1309
236 1 Ar 10.1309 16.8848 13.5079
237 1 Ar 10.1309 16.8848 16.8848
238 1 Ar 10.1309 16.8848 20.2618
239 1 Ar 10.1309 16.8848 23.6388
240 1 Ar 10.1309 20.2618 0
241 1 Ar 10.1309 20.2618 3.37697
242 1 Ar 10.1309 20.2618 6.75394
243 1 Ar 10.1309 20.2618 10.1309
244 1 Ar 10.1309 20.2618 13.5079
245 1 Ar 10.1309 20.2618 16.8848
246 1 Ar 10.1309 20.2618 20.2618
247 1 Ar 10.1309 20.2618 23.6388
248 1 Ar 10.1309 23.6388 0
249 1 Ar 10.1309 23.6388 3.37697
250 1 Ar 10.1309 23.6388 6.75394
251 1 Ar 10.1309 23.6388 10.1309
252 1 Ar 10.1309 23.6388 13.5079
253 1 Ar 10.1309 23.6388 16.8848
254 1 Ar 10.1309 23.6388 20.2618
255 1 Ar 10.1309 23.6388 23.6388
256 1 Ar 13.5079 0 0
257 1 Ar 13.5079 0 3.37697
258 1 Ar 13.5079 0 6.75394
259 1 Ar 13.5079 0 10.1309
260 1 Ar 13.5079 0 13.5079
261 1 Ar 13.5079 0 16.8848
262 1 Ar 13.5079 0 20.2618
263 1 Ar 13.5079 0 23.6388
264 1 Ar 13.5079 3.37697 0
265 1 Ar 13.5079 3.37697 3.37697
266 1 Ar 13.5079 3.37697 6.75394
267 1 Ar 13.5079 3.37697 10.1309
268 1 Ar 13.5079 3.37697 13.5079
269 1 Ar 13.5079 3.37697 16.8848
270 1 Ar 13.5079 3.37697 20.2618
271 1 Ar 13.5079 3.37697 23.6388
272 1 Ar 13.5079 6.75394 0
273 1 Ar 13.5079 6.75394 3.37697
274 1 Ar 13.5079 6.75394 6.75394
275 1 Ar 13.5079 6.75394 10.1309
276 1 Ar 13.5079 6.75394 13.5079
277 1 Ar 13.5079 6.75394 16.8848
278 1 Ar 13.5079 6.75394 20.2618
279 1 Ar 13.5079 6.75394 23.6388
280 1 Ar 13.5079 10.1309 0
281 1 Ar 13.5079 10.1309 3.37697
282 1 Ar 13.5079 10.1309 6.75394
283 1 Ar 13.5079 10.1309 10.1309
284 1 Ar 13.5079 10.1309 13.5079
285 1 Ar 13.5079 10.1309 16.8848
286 1 Ar 13.5079 10.1309 20.2618
287 1 Ar 13.5079 10.1309 23.6388
288 1 Ar 13.5079 13.5079 0
289 1 Ar 13.5079 13.5079 3.37697
290 1 Ar 13.5079 13.5079 6.75394
291 1 Ar 13.5079 13.5079 10.1309
292 1 Ar 13.5079 13.5079 13.5079
293 1 Ar 13.5079 13.5079 16.8848
294 1 Ar 13.5079 13.5079 20.2618
295 1 Ar 13.5079 13.5079 23.6388
296 1 Ar 13.5079 16.8848 0
297 1 Ar 13.5079 16.8848 3.37697
298 1 Ar 13.5079 16.8848 6.75394
299 1 Ar 13.5079 16.8848 10.1309
300 1 Ar 13.5079 16.8848 13.5079
301 1 Ar 13.5079 16.8848 16.8848
302 1 Ar 13.5079 16.8848 20.2618
303 1 Ar 13.5079 16.8848 23.6388
304 1 Ar 13.5079 20.2618 0
305 1 Ar 13.5079 20.2618 3.37697
306 1 Ar 13.5079 20.2618 6.75394
307 1 Ar 13.5079 20.2618 10.1309
308 1 Ar 13.5079 20.2618 13.5079
309 1 Ar 13.5079 20.2618 16.8848
310 1 Ar 13.5079 20.2618 20.2618
311 1 Ar 13.5079 20.2618 23.6388
312 1 Ar 13.5079 23.6388 0
313 1 Ar 13.5079 23.6388 3.37697
314 1 Ar 13.5079 23.6388 6.75394
315 1 Ar 13.5079 23.6388 10.1309
316 1 Ar 13.5079 23.6388 13.5079
317 1 Ar 13.5079 23.6388 16.8848
318 1 Ar 13.5079 23.6388 20.2618
319 1 Ar 13.5079 23.6388 23.6388
320 1 Ar 16.8848 0 0
321 1 Ar 16.8848 0 3.37697
322 1 Ar 16.8848 0 6.75394
323 1 Ar 16.8848 0 10.1309
324 1 Ar 16.8848 0 13.5079
325 1 Ar 16.8848 0 16.8848
326 1 Ar 16.8848 0 20.2618
327 1 Ar 16.8848 0 23.6388
328 1 Ar 16.8848 3.37697 0
329 1 Ar 16.8848 3.37697 3.37697
330 1 Ar 16.8848 3.37697 6.75394
331 1 Ar 16.8848 3.37697 10.1309
332 1 Ar 16.8848 3.37697 13.5079
333 1 Ar 16.8848 3.37697 16.8848
334 1 Ar 16.8848 3.37697 20.2618
335 1 Ar 16.8848 3.37697 23.6388
336 1 Ar 16.8848 6.75394 0
337 1 Ar 16.8848 6.75394 3.37697
338 1 Ar 16.8848 6.75394 6.75394
339 1 Ar 16.8848 6.75394 10.1309
340 1 Ar 16.8848 6.75394 13.5079
341 1 Ar 16.8848 6.75394 16.8848
342 1 Ar 16.8848 6.75394 20.2618
343 1 Ar 16.8848 6.75394 23.6388
344 1 Ar 16.8848 10.1309 0
345 1 Ar 16.8848 10.1309 3.37697
346 1 Ar 16.8848 10.1309 6.75394
347 1 Ar 16.8848 10.1309 10.1309
348 1 Ar 16.8848 10.1309 13.5079
349 1 Ar 16.8848 10.1309 16.8848
350 1 Ar 16.8848 10.1309 20.2618
351 1 Ar 16.8848 10.1309 23.6388
352 1 Ar 16.8848 13.5079 0
353 1 Ar 16.8848 13.5079 3.37697
354 1 Ar 16.8848 13.5079 6.75394
355 1 Ar 16.8848 13.5079 10.1309
356 1 Ar 16.8848 13.5079 13.5079
357 1 Ar 16.8848 13.5079 16.8848
358 1 Ar 16.8848 13.5079 20.2618
359 1 Ar 16.8848 13.5079 23.6388
360 1 Ar 16.8848 16.8848 0
361 1 Ar 16.8848 16.8848 3.37697
362 1 Ar 16.8848 16.8848 6.75394
363 1 Ar 16.8848 16.8848 10.1309
364 1 Ar 16.8848 16.8848 13.5079
365 1 Ar 16.8848 16.8848 16.8848
366 1 Ar 16.8848 16.8848 20.2618
367 1 Ar 16.8848 16.8848 23.6388
368 1 Ar 16.8848 20.2618 0
369 1 Ar 16.8848 20.2618 3.37697
370 1 Ar 16.8848 20.2618 6.75394
371 1 Ar 16.8848 20.2618 10.1309
372 1 Ar 16.8848 20.2618 13.5079
373 1 Ar 16.8848 20.2618 16.8848
374 1 Ar 16.8848 20.2618 20.2618
375 1 Ar 16.8848 20.2618 23.6388
376 1 Ar 16.8848 23.6388 0
377 1 Ar 16.8848 23.6388 3.37697
378 1 Ar 16.8848 23.6388 6.75394
379 1 Ar 16.8848 23.6388 10.1309
380 1 Ar 16.8848 23.6388 13.5079
381 1 Ar 16.8848 23.6388 16.8848
382 1 Ar 16.8848 23.6388 20.2618
383 1 Ar 16.8848 23.6388 23.6388
384 1 Ar 20.2618 0 0
385 1 Ar 20.2618 0 3.37697
386 1 Ar 20.2618 0 6.75394
387 1 Ar 20.2618 0 10.1309
388 1 Ar 20.2618 0 13.5079
389 1 Ar 20.2618 0 16.8848
390 1 Ar 20.2618 0 20.2618
391 1 Ar 20.2618 0 23.6388
392 1 Ar 20.2618 3.37697 0
393 1 Ar 20.2618 3.37697 3.37697
394 1 Ar 20.2618 3.37697 6.75394
395 1 Ar 20.2618 3.37697 10.1309
396 1 Ar 20.2618 3.37697 13.5079
397 1 Ar 20.2618 3.37697 16.8848
398 1 Ar 20.2618 3.37697 20.2618
399 1 Ar 20.2618 3.37697 23.6388
400 1 Ar 20.2618 6.75394 0
401 1 Ar 20.2618 6.75394 3.37697
402 1 Ar 20.2618 6.75394 6.75394
403 1 Ar 20.2618 6.75394 10.1309
404 1 Ar 20.2618 6.75394 13.5079
405 1 Ar 20.2618 6.75394 16.8848
406 1 Ar 20.2618 6.75394 20.2618
407 1 Ar 20.2618 6.75394 23.6388
408 1 Ar 20.2618 10.1309 0
409 1 Ar 20.2618 10.1309 3.37697
410 1 Ar 20.2618 10.1309 6.75394
411 1 Ar 20.2618 10.1309 10.1309
412 1 Ar 20.2618 10.1309 13.5079
413 1 Ar 20.2618 10.1309 16.8848
414 1 Ar 20.2618 10.1309 20.2618
415 1 Ar 20.2618 10.1309 23.6388
416 1 Ar 20.2618 13.5079 0
417 1 Ar 20.2618 13.5079 3.37697
418 1 Ar 20.2618 13.5079 6.75394
419 1 Ar 20.2618 13.5079 10.1309
420 1 Ar 20.2618 13.5079 13.5079
421 1 Ar 20.2618 13.5079 16.8848
422 1 Ar 20.2618 13.5079 20.2618
423 1 Ar 20.2618 13.5079 23.6388
424 1 Ar 20.2618 16.8848 0
425 1 Ar 20.2618 16.8848 3.37697
426 1 Ar 20.2618 16.8848 6.75394
427 1 Ar 20.2618 16.8848 10.1309
428 1 Ar 20.2618 16.8848 13.5079
429 1 Ar 20.2618 16.8848 16.8848
430 1 Ar 20.2618 16.8848 20.2618
431 1 Ar 20.2618 16.8848 23.6388
432 1 Ar 20.2618 20.2618 0
433 1 Ar 20.2618 20.2618 3.37697
434 1 Ar 20.2618 20.2618 6.75394
435 1 Ar 20.2618 20.2618 10.1309
436 1 Ar 20.2618 20.2618 13.5079
437 1 Ar 20.2618 20.2618 16.8848
438 1 Ar 20.2618 20.2618 20.2618
439 1 Ar 20.2618 20.2618 23.6388
440 1 Ar 20.2618 23.6388 0
441 1 Ar 20.2618 23.6388 3.37697
442 1 Ar 20.2618 23.6388 6.75394
443 1 Ar 20.2618 23.6388 10.1309
444 1 Ar 20.2618 23.6388 13.5079
445 1 Ar 20.2618 23.6388 16.8848
446 1 Ar 20.2618 23.6388 20.2618
447 1 Ar 20.2618 23.6388 23.6388
448 1 Ar 23.6388 0 0
449 1 Ar 23.6388 0 3.37697
450 1 Ar 23.6388 0 6.75394
451 1 Ar 23.6388 0 10.1309
452 1 Ar 23.6388 0 13.5079
453 1 Ar 23.6388 0 16.8848
454 1 Ar 23.6388 0 20.2618
455 1 Ar 23.6388 0 23.6388
456 1 Ar 23.6388 3.37697 0
457 1 Ar 23.6388 3.37697 3.37697
458 1 Ar 23.6388 3.37697 6.75394
459 1 Ar 23.6388 3.37697 10.1309
460 1 Ar 23.6388 3.37697 13.5079
461 1 Ar 23.6388 3.37697 16.8848
462 1 Ar 23.6388 3.37697 20.2618
463 1 Ar 23.6388 3.37697 23.6388
464 1 Ar 23.6388 6.75394 0
465 1 Ar 23.6388 6.75394 3.37697
466 1 Ar 23.6388 6.75394 6.75394
467 1 Ar 23.6388 6.75394 10.1309
468 1 Ar 23.6388 6.75394 13.5079
469 1 Ar 23.6388 6.75394 16.8848
470 1 Ar 23.6388 6.75394 20.2618
471 1 Ar 23.6388 6.75394 23.6388
472 1 Ar 23.6388 10.1309 0
473 1 Ar 23.6388 10.1309 3.37697
474 1 Ar 23.6388 10.1309 6.75394
475 1 Ar 23.6388 10.1309 10.1309
476 1 Ar 23.6388 10.1309 13.5079
477 1 Ar 23.6388 10.1309 16.8848
478 1 Ar 23.6388 10.1309 20.2618
479 1 Ar 23.6388 10.1309 23.6388
480 1 Ar 23.6388 13.5079 0
481 1 Ar 23.6388 13.5079 3.37697
482 1 Ar 23.6388 13.5079 6.75394
483 1 Ar 23.6388 13.5079 10.1309
484 1 Ar 23.6388 13.5079 13.5079
485 1 Ar 23.6388 13.5079 16.8848
486 1 Ar 23.6388 13.5079 20.2618
487 1 Ar 23.6388 13.5079 23.6388
488 1 Ar 23.6388 16.8848 0
489 1 Ar 23.6388 16.8848 3.37697
490 1 Ar 23.6388 16.8848 6.75394
491 1 Ar 23.6388 16.8848 10.1309
492 1 Ar 23.6388 16.8848 13.5079
493 1 Ar 23.6388 16.8848 16.8848
494 1 Ar 23.6388 16.8848 20.2618
495 1 Ar 23.6388 16.8848 23.6388
496 1 Ar 23.6388 20.2618 0
497 1 Ar 23.6388 20.2618 3.37697
498 1 Ar 23.6388 20.2618 6.75394
499 1 Ar 23.6388 20.2618 10.1309
ITEM: TIMESTEP
19999
ITEM: NUMBER OF ATOMS
500
ITEM: BOX BOUNDS pp pp pp
0 30.3927
0 30.3927
0 30.3927
ITEM: ATOMS id type element xu yu zu
0 1 Ar 29.5133 29.456 28.8391
1 1 Ar 28.7473 30.1281 2.55602
2 1 Ar 0.115367 29.2615 5.80125
3 1 Ar 29.0237 29.8093 10.2914
4 1 Ar 0.272967 29.3651 13.6973
5 1 Ar 30.19 29.8584 16.8452
6 1 Ar 30.0023 28.9096 20.5269
7 1 Ar 29.9301 30.0387 24.2492
8 1 Ar 29.7208 2.77445 29.2193
9 1 Ar 29.7383 3.35732 2.39944
10 1 Ar 29.9511 2.48806 6.77469
11 1 Ar 28.6336 3.25388 10.7005
12 1 Ar 30.2176 2.82112 13.791
13 1 Ar 29.9387 2.80539 17.2011
14 1 Ar 28.5106 2.42978 20.4037
15 1 Ar 30.2899 3.59646 23.8637
16 1 Ar 29.4039 6.39332 0.573358
17 1 Ar 0.437725 6.31286 4.01514
18 1 Ar 28.2699 6.9566 6.29823
19 1 Ar 30.0892 6.27429 10.5978
20 1 Ar 29.5056 6.61273 13.8879
21 1 Ar 30.0824 6.41059 17.4342
22 1 Ar 30.3675 6.04254 20.74
23 1 Ar 0.313494 7.15596 23.836
24 1 Ar 28.9811 10.5036 30.348
25 1 Ar 29.3625 9.41608 3.13218
26 1 Ar 0.37952 9.4964 6.36891
27 1 Ar 30.2095 9.59574 9.76717
28 1 Ar 29.2938 9.93783 13.0121
29 1 Ar 0.157686 9.77327 16.3335
30 1 Ar 29.8056 9.82194 20.3082
31 1 Ar 29.4533 10.6043 23.7325
32 1 Ar 30.1308 13.8878 30.0007
33 1 Ar 28.9326 13.7821 3.28242
34 1 Ar 29.6239 13.7277 6.92072
35 1 Ar 30.3136 13.2912 10.1905
36 1 Ar 30.2276 13.2897 13.5417
37 1 Ar 28.6153 12.3032 16.4476
38 1 Ar 30.1782 13.6942 20.1598
39 1 Ar 29.0923 13.9393 23.1661
40 1 Ar 0.186686 17.5049 28.6407
41 1 Ar 29.7395 17.4277 1.94134
42 1 Ar 0.312249 16.567 5.78773
43 1 Ar 30.1327 16.4384 10.1087
44 1 Ar 29.6129 16.8014 13.5788
45 1 Ar 29.5609 16.6124 17.1594
46 1 Ar 30.1324 16.6215 21.5759
47 1 Ar 28.7482 17.408 24.9979
48 1 Ar 29.5761 20.8193 29.6833
49 1 Ar 0.487091 20.4502 3.45457
50 1 Ar 29.2831 21.3826 6.20316
51 1 Ar 29.381 19.6238 9.97324
52 1 Ar 0.197525 20.2932 13.4656
53 1 Ar 28.6157 19.7858 16.7705
54 1 Ar 27.7283 19.1431 20.6582
55 1 Ar 30.3687 20.5548 23.9452
56 1 Ar 29.5355 25.2365 28.7004
57 1 Ar 29.5301 24.5738 3.49885
58 1 Ar 29.9278 25.8296 6.67377
59 1 Ar 0.0299132 24.5376 9.6368
60 1 Ar 29.6165 24.058 13.6989
61 1 Ar 30.0476 24.7686 17.5632
62 1 Ar 30.0205 22.9177 20.6209
63 1 Ar 30.1261 25.3542 23.809
64 1 Ar 3.763 29.412 0.396352
65 1 Ar 2.55634 0.23951 3.89504
66 1 Ar 3.78506 0.451488 7.14901
67 1 Ar 2.40757 29.897 10.8378
68 1 Ar 3.78912 29.8279 13.8347
69 1 Ar 3.19102 29.6425 17.3284
70 1 Ar 2.75417 30.192 20.6195
71 1 Ar 3.42996 29.9007 23.8681
72 1 Ar 3.02374 2.50199 28.5203
73 1 Ar 3.35938 3.39498 2.27951
74 1 Ar 2.96794 3.29492 5.6121
75 1 Ar 2.57649 2.95099 9.59591
76 1 Ar 3.24704 3.07082 13.2342
77 1 Ar 3.55409 3.18687 17.1744
78 1 Ar 2.29807 2.99377 20.3282
79 1 Ar 3.49384 3.0559 24.2293
80 1 Ar 2.98375 6.75294 29.7201
81 1 Ar 3.66332 6.67195 2.58506
82 1 Ar 3.3003 7.0715 6.87631
83 1 Ar 3.70735 6.21644 10.0188
84 1 Ar 2.9141 6.48718 13.1674
85 1 Ar 3.41969 6.52689 16.6787
86 1 Ar 3.20703 6.43104 20.7785
87 1 Ar 3.129 6.51425 25.255
88 1 Ar 2.44306 9.99443 30.1521
89 1 Ar 3.79678 10.3406 3.18196
90 1 Ar 4.00603 10.5734 6.57742
91 1 Ar 3.098 9.62981 9.82185
92 1 Ar 2.98662 10.1368 13.445
93 1 Ar 3.34996 10.3357 16.789
94 1 Ar 3.16366 9.97534 20.7133
95 1 Ar 2.59866 10.3489 24.0837
96 1 Ar 3.64802 13.533 29.2891
97 1 Ar 2.27264 13.5168 3.1295
98 1 Ar 3.18813 13.8252 6.33525
99 1 Ar 3.2567 13.2672 9.74826
100 1 Ar 3.47964 13.6369 13.0085
101 1 Ar 3.95297 13.5417 16.2076
102 1 Ar 3.21933 13.6477 19.6014
103 1 Ar 2.13408 13.875 23.7471
104 1 Ar 3.42988 17.0452 30.0239
105 1 Ar 2.68743 17.384 3.21349
106 1 Ar 3.85577 17.0365 6.53993
107 1 Ar 3.95732 16.3574 9.93983
108 1 Ar 3.35531 18.013 13.2124
109 1 Ar 2.72985 16.7355 16.4829
110 1 Ar 2.6714 16.9523 19.6356
111 1 Ar 2.96291 17.3168 23.0577
112 1 Ar 3.56332 20.4679 30.3028
113 1 Ar 3.85811 20.3472 3.54167
114 1 Ar 2.35092 20.1956 6.84344
115 1 Ar 2.78937 19.3916 9.87165
116 1 Ar 3.72787 21.2907 13.4431
117 1 Ar 2.30913 20.0558 16.2928
118 1 Ar 3.44481 20.5636 19.2184
119 1 Ar 3.49717 21.0733 23.4933
120 1 Ar 2.82399 24.5551 30.2131
121 1 Ar 2.44043 23.5842 3.9441
122 1 Ar 3.91487 25.2929 6.70146
123 1 Ar 3.22767 22.9179 9.15952
124 1 Ar 3.1951 25.2497 12.3937
125 1 Ar 3.34967 23.6159 16.7212
126 1 Ar 3.15344 23.9207 20.759
127 1 Ar 3.32149 24.2271 25.1381
128 1 Ar 7.10253 30.3743 29.7631
129 1 Ar 6.35328 0.219154 2.5614
130 1 Ar 7.35835 0.363114 5.78973
131 1 Ar 6.10032 29.522 9.86092
132 1 Ar 6.87783 0.726766 13.2203
133 1 Ar 6.55694 29.2848 16.4702
134 1 Ar 7.19706 29.7734 20.1524
135 1 Ar 6.89845 29.1973 23.4316
136 1 Ar 6.84521 2.90076 28.1761
137 1 Ar 6.97638 3.35965 3.92724
138 1 Ar 6.29378 3.70691 7.14915
139 1 Ar 6.33941 2.89996 10.1838
140 1 Ar 7.01051 3.99613 13.5828
141 1 Ar 6.50245 2.3572 16.5181
142 1 Ar 6.57583 2.67249 19.8991
143 1 Ar 6.82608 2.08645 24.7401
144 1 Ar 7.12995 6.18194 29.86
145 1 Ar 7.23562 7.13925 3.00631
146 1 Ar 6.64154 6.91357 6.27984
147 1 Ar 6.83067 7.12238 9.6165
148 1 Ar 6.30276 7.23623 12.999
149 1 Ar 6.6379 6.67196 16.9834
150 1 Ar 6.72368 6.09506 20.2818
151 1 Ar 6.27788 5.65716 24.1405
152 1 Ar 6.49565 9.92104 29.9283
153 1 Ar 7.24116 10.8886 2.91386
154 1 Ar 7.26074 10.0991 6.44557
155 1 Ar 6.1432 10.4446 9.84692
156 1 Ar 6.61892 10.3949 13.4773
157 1 Ar 6.52761 10.1206 16.7759
158 1 Ar 6.64755 9.76249 20.0251
159 1 Ar 6.19131 9.0751 23.4581
160 1 Ar 7.02576 13.4745 29.6464
161 1 Ar 5.644 14.0742 2.50916
162 1 Ar 6.609 13.3615 6.47286
163 1 Ar 6.82339 13.9826 9.85215
164 1 Ar 6.74083 13.8643 12.9163
165 1 Ar 7.17467 13.8022 16.4138
166 1 Ar 6.48499 13.3035 19.6589
167 1 Ar 6.52974 13.4539 24.3551
168 1 Ar 6.78302 17.2671 28.9782
169 1 Ar 7.46329 16.3612 3.81678
170 1 Ar 7.2843 16.9755 7.17235
171 1 Ar 7.09452 17.6139 10.4496
172 1 Ar 6.47264 16.886 13.9722
173 1 Ar 6.1762 16.9993 17.2838
174 1 Ar 6.15938 16.3498 20.6865
175 1 Ar 6.11622 17.4375 24.0603
176 1 Ar 6.60328 20.5315 29.0402
177 1 Ar 6.67447 18.9601 2.08227
178 1 Ar 5.86049 21.6174 6.26011
179 1 Ar 6.597 21.1237 10.0468
180 1 Ar 6.97893 20.0264 13.5189
181 1 Ar 5.94408 20.7537 16.7838
182 1 Ar 6.70583 19.8196 20.496
183 1 Ar 6.48729 20.5062 25.5913
184 1 Ar 6.84144 23.9536 29.9618
185 1 Ar 5.6692 23.9187 3.2993
186 1 Ar 7.5509 25.9738 6.41059
187 1 Ar 6.26883 24.8079 9.70373
188 1 Ar 7.66702 23.6918 13.7157
189 1 Ar 6.66658 24.7772 16.9619
190 1 Ar 6.53332 23.6429 20.5688
191 1 Ar 7.29643 24.7443 24.7558
192 1 Ar 10.0899 29.3656 29.5359
193 1 Ar 9.94457 29.9686 3.02036
194 1 Ar 10.6643 28.9908 6.33423
195 1 Ar 10.1446 29.0092 10.0672
196 1 Ar 10.3535 0.233682 13.3608
197 1 Ar 10.1385 29.7209 16.5639
198 1 Ar 10.3099 29.292 20.3102
199 1 Ar 10.6456 29.1801 24.1929
200 1 Ar 9.95629 2.54949 0.628847
201 1 Ar 10.2855 4.0089 3.78016
202 1 Ar 9.79654 2.53284 7.00136
203 1 Ar 10.3301 2.58809 10.4558
204 1 Ar 10.1459 4.12373 13.5173
205 1 Ar 10.1049 2.90108 16.5408
206 1 Ar 10.4921 3.15063 20.1095
207 1 Ar 10.0985 3.37053 23.5183
208 1 Ar 10.2034 7.37834 0.297272
209 1 Ar 10.5762 7.309 3.49724
210 1 Ar 9.75935 6.16632 7.0391
211 1 Ar 9.82746 5.81796 10.2669
212 1 Ar 9.72011 7.33406 13.5666
213 1 Ar 10.0642 6.69136 17.4357
214 1 Ar 10.0935 6.57082 20.9106
215 1 Ar 9.47822 5.89332 26.1146
216 1 Ar 9.76906 10.1602 28.5925
217 1 Ar 10.852 10.4036 2.93087
218 1 Ar 10.2706 9.69398 6.409
219 1 Ar 10.3675 9.4717 9.85195
220 1 Ar 10.1381 10.7104 13.3277
221 1 Ar 9.76105 9.94675 16.854
222 1 Ar 10.1044 9.92268 21.0498
223 1 Ar 9.37281 10.1532 24.9345
224 1 Ar 10.0485 12.8682 0.440366
225 1 Ar 9.52821 13.8219 3.7175
226 1 Ar 10.0609 13.0443 7.1671
227 1 Ar 10.6935 12.8194 10.3329
228 1 Ar 10.1599 14.3959 13.7542
229 1 Ar 10.2758 13.5025 17.6396
230 1 Ar 9.82353 13.4743 21.0974
231 1 Ar 10.1403 13.7649 24.2005
232 1 Ar 9.23382 16.5079 0.763297
233 1 Ar 10.656 17.3531 3.80853
234 1 Ar 10.7608 16.6209 7.20977
235 1 Ar 10.6674 16.3639 10.6289
236 1 Ar 9.85903 18.1617 13.6148
237 1 Ar 9.6896 16.7983 16.9759
238 1 Ar 9.89235 16.8132 21.5436
239 1 Ar 9.98527 16.8934 25.6303
240 1 Ar 10.3576 21.2613 28.8864
241 1 Ar 9.99449 20.5951 2.62521
242 1 Ar 8.98571 19.9208 6.42637
243 1 Ar 10.1151 19.8779 10.5117
244 1 Ar 10.4252 21.888 13.6074
245 1 Ar 9.76628 20.2138 16.6017
246 1 Ar 10.9217 20.5812 19.9946
247 1 Ar 9.18806 20.1268 23.6858
248 1 Ar 10.2475 24.6432 29.1709
249 1 Ar 9.97491 24.2647 2.75557
250 1 Ar 10.2388 23.1014 6.45142
251 1 Ar 9.87354 24.5373 10.5571
252 1 Ar 10.5429 25.9514 13.7421
253 1 Ar 10.2636 24.155 16.5853
254 1 Ar 9.71206 25.1638 19.822
255 1 Ar 10.4841 24.8462 23.6653
256 1 Ar 13.7482 30.2014 29.968
257 1 Ar 13.5203 30.1749 3.63997
258 1 Ar 13.704 30.156 7.00551
259 1 Ar 13.5178 30.2495 10.242
260 1 Ar 13.4784 29.6139 13.7294
261 1 Ar 13.7529 0.216601 17.101
262 1 Ar 13.7855 29.1442 21.1811
263 1 Ar 13.1612 30.0373 26.2741
264 1 Ar 12.9198 2.86044 28.2159
265 1 Ar 13.3186 3.13605 2.30996
266 1 Ar 13.5072 3.11194 6.33242
267 1 Ar 13.7417 3.48768 9.82811
268 1 Ar 13.0842 3.14503 12.9262
269 1 Ar 13.648 4.00632 17.2841
270 1 Ar 13.6212 2.09513 20.2653
271 1 Ar 13.4366 2.80978 24.2128
272 1 Ar 13.3314 6.51827 29.458
273 1 Ar 13.8874 6.2866 3.62932
274 1 Ar 13.5337 6.29751 7.26414
275 1 Ar 13.1308 7.38729 10.5012
276 1 Ar 13.5841 6.72798 13.5929
277 1 Ar 13.0945 7.19448 16.9605
278 1 Ar 13.6213 6.11494 20.8597
279 1 Ar 12.4424 5.95036 24.3819
280 1 Ar 13.6398 10.3915 0.535607
281 1 Ar 14.2397 9.80578 3.8576
282 1 Ar 13.6261 10.323 7.19569
283 1 Ar 13.8204 10.6824 10.3067
284 1 Ar 13.181 10.082 13.6655
285 1 Ar 13.9936 10.6214 17.1323
286 1 Ar 13.4045 9.5664 20.5224
287 1 Ar 13.259 9.29002 24.6209
288 1 Ar 13.5806 13.7689 0.00292582
289 1 Ar 12.993 13.1544 3.49104
290 1 Ar 13.4687 13.99 7.12217
291 1 Ar 13.537 14.2798 10.6828
292 1 Ar 13.6366 13.2733 14.0154
293 1 Ar 13.4515 14.04 17.7407
294 1 Ar 13.0499 13.937 22.065
295 1 Ar 13.4777 13.2634 26.009
296 1 Ar 13.1514 16.8958 28.8352
297 1 Ar 13.4584 16.4108 2.30434
298 1 Ar 13.825 17.5021 6.9215
299 1 Ar 13.8411 17.6241 10.3082
300 1 Ar 12.9413 16.5869 13.4154
301 1 Ar 13.3273 17.5066 16.5739
302 1 Ar 13.1763 17.8822 20.4844
303 1 Ar 13.3298 16.9147 24.1412
304 1 Ar 13.2145 19.892 30.0697
305 1 Ar 13.6066 20.539 3.28978
306 1 Ar 12.6115 20.696 6.4467
307 1 Ar 13.3835 21.4728 10.0113
308 1 Ar 13.7014 19.6298 12.9283
309 1 Ar 14.1273 20.8353 16.0788
310 1 Ar 14.5473 21.1098 19.8223
311 1 Ar 12.611 20.6615 24.6028
312 1 Ar 13.7226 23.7188 29.8779
313 1 Ar 13.3504 24.5171 3.14978
314 1 Ar 13.6006 24.0804 6.71999
315 1 Ar 13.2888 25.2168 9.99008
316 1 Ar 13.7783 23.5717 13.2549
317 1 Ar 14.3405 24.4528 16.8797
318 1 Ar 13.0365 24.0538 20.0096
319 1 Ar 13.9375 23.6013 23.2807
320 1 Ar 17.4096 29.2646 0.196776
321 1 Ar 16.9056 0.462274 3.14511
322 1 Ar 17.423 29.2313 6.3506
323 1 Ar 16.5376 29.2498 9.71952
324 1 Ar 16.9468 0.389073 13.1301
325 1 Ar 17.7071 29.1397 16.3064
326 1 Ar 16.8886 0.362962 19.4335
327 1 Ar 16.3786 29.9358 24.8786
328 1 Ar 16.9228 3.07505 29.8981
329 1 Ar 16.42 3.97478 2.93842
330 1 Ar 17.2526 3.07116 6.19996
331 1 Ar 17.2419 2.51298 9.45739
332 1 Ar 16.7858 3.975 13.186
333 1 Ar 16.8227 2.83907 16.958
334 1 Ar 16.7937 3.66655 20.6283
335 1 Ar 17.4724 2.8125 24.3943
336 1 Ar 16.6023 6.85385 0.298273
337 1 Ar 17.3125 7.39843 3.71686
338 1 Ar 16.9514 6.68605 7.02961
339 1 Ar 16.9658 6.14194 10.3959
340 1 Ar 17.348 7.11393 13.8493
341 1 Ar 16.1073 6.89459 17.0634
342 1 Ar 17.6736 7.20077 20.2467
343 1 Ar 15.9637 5.79366 25.0669
344 1 Ar 16.8915 10.0039 29.3164
345 1 Ar 17.8755 10.6085 2.50939
346 1 Ar 16.8609 10.1024 6.24883
347 1 Ar 16.7725 9.37284 10.0827
348 1 Ar 16.7055 10.193 13.25
349 1 Ar 18.1494 10.0784 16.4236
350 1 Ar 16.714 10.4088 19.9612
351 1 Ar 17.2862 10.046 24.3328
352 1 Ar 17.3039 13.1311 30.2884
353 1 Ar 16.1834 13.8452 2.97886
354 1 Ar 17.061 13.7443 6.35885
355 1 Ar 16.9807 13.3089 9.77039
356 1 Ar 17.3404 13.6103 13.8761
357 1 Ar 17.0189 13.2901 17.4169
358 1 Ar 17.4596 13.5683 20.6541
359 1 Ar 17.0603 13.012 25.7234
360 1 Ar 16.7325 16.4287 0.00582581
361 1 Ar 16.8866 17.6291 3.12226
362 1 Ar 17.6326 17.2133 6.43682
363 1 Ar 17.0646 16.7288 9.74974
364 1 Ar 16.7734 16.8038 13.0899
365 1 Ar 16.8436 16.5582 16.3856
366 1 Ar 16.988 17.0428 19.9459
367 1 Ar 16.4955 17.1686 24.3032
368 1 Ar 16.7955 19.9979 29.6483
369 1 Ar 17.4921 20.9794 3.18545
370 1 Ar 15.9223 20.2167 6.91994
371 1 Ar 16.8433 20.3456 10.2338
372 1 Ar 16.8407 20.516 13.5044
373 1 Ar 17.704 20.0612 16.9035
374 1 Ar 17.8196 20.0937 20.7785
375 1 Ar 16.2742 20.6204 24.8313
376 1 Ar 17.5634 24.5821 29.8473
377 1 Ar 17.0428 24.92 3.04965
378 1 Ar 17.1196 24.7752 6.52288
379 1 Ar 16.5035 23.7868 9.5949
380 1 Ar 17.5639 24.1146 12.8533
381 1 Ar 18.0791 23.8163 16.7871
382 1 Ar 17.2336 23.6648 20.2364
383 1 Ar 17.2613 24.1393 24.5588
384 1 Ar 20.6371 29.5388 28.8108
385 1 Ar 20.7933 29.6711 3.92756
386 1 Ar 20.956 29.5738 7.46362
387 1 Ar 20.0062 28.7236 10.5726
388 1 Ar 20.212 29.9732 13.8227
389 1 Ar 20.5447 29.7173 17.6344
390 1 Ar 20.0881 30.1265 21.1305
391 1 Ar 19.8754 29.4515 24.9844
392 1 Ar 20.3652 2.2918 30.3115
393 1 Ar 20.2142 3.0719 3.03958
394 1 Ar 20.6421 3.00893 7.10951
395 1 Ar 20.2592 2.18047 10.5943
396 1 Ar 20.2325 3.3797 13.6836
397 1 Ar 20.0957 2.78278 17.1391
398 1 Ar 20.1586 3.60365 20.5053
399 1 Ar 21.0239 2.38678 25.0715
400 1 Ar 19.8938 5.82968 29.8045
401 1 Ar 20.4008 6.63905 2.6194
402 1 Ar 20.5809 6.46681 6.13753
403 1 Ar 20.2406 5.73693 9.67726
404 1 Ar 20.854 6.75206 13.6588
405 1 Ar 19.8421 6.22062 17.0944
406 1 Ar 21.679 6.83635 19.9768
407 1 Ar 20.2306 6.23992 23.0748
408 1 Ar 20.3327 9.634 29.3921
409 1 Ar 21.3715 10.1879 2.36636
410 1 Ar 20.4629 10.4711 6.32838
411 1 Ar 20.2582 9.54658 9.70042
412 1 Ar 20.2112 9.89271 13.3451
413 1 Ar 21.4235 9.75137 16.74
414 1 Ar 19.8684 9.98996 21.0327
415 1 Ar 20.6272 9.17775 25.025
416 1 Ar 20.5988 13.7561 0.0220268
417 1 Ar 20.5549 13.5363 3.32509
418 1 Ar 20.3106 13.7397 6.67708
419 1 Ar 20.3847 12.981 10.3049
420 1 Ar 20.8971 13.4103 13.6369
421 1 Ar 20.2598 13.4242 17.0257
422 1 Ar 20.566 13.3485 20.1428
423 1 Ar 20.5095 12.5997 24.2428
424 1 Ar 20.1879 17.0306 29.7705
425 1 Ar 20.2992 16.822 3.59719
426 1 Ar 21.3461 16.9294 6.85643
427 1 Ar 20.129 16.4725 10.6559
428 1 Ar 20.7594 16.7532 13.9147
429 1 Ar 20.1094 16.827 17.1201
430 1 Ar 20.0005 17.0182 20.9156
431 1 Ar 20.4157 16.5823 24.749
432 1 Ar 20.2886 20.6403 29.9492
433 1 Ar 20.7158 20.0986 3.09403
434 1 Ar 19.4179 20.4807 6.54883
435 1 Ar 20.6255 19.9274 10.1338
436 1 Ar 20.1125 20.2889 13.5465
437 1 Ar 21.0384 19.9998 17.0561
438 1 Ar 21.1234 20.1507 20.9031
439 1 Ar 19.6517 20.1738 24.0745
440 1 Ar 21.0272 24.2791 29.5507
441 1 Ar 20.1333 23.3485 4.30887
442 1 Ar 20.2655 23.3895 7.73824
443 1 Ar 20.597 25.1427 10.688
444 1 Ar 21.5127 23.298 13.3897