ITEM: TIMESTEP
-1
ITEM: NUMBER OF ATOMS
500
ITEM: BOX BOUNDS pp pp pp
0 46.1451
0 46.1451
0 46.1451
ITEM: ATOMS id type element xu yu zu
0 1 Ar 0 0 0
1 1 Ar 0 0 5.12723
2 1 Ar 0 0 10.2545
3 1 Ar 0 0 15.3817
4 1 Ar 0 0 20.5089
5 1 Ar 0 0 25.6362
6 1 Ar 0 0 30.7634
7 1 Ar 0 0 35.8906
8 1 Ar 0 5.12723 0
9 1 Ar 0 5.12723 5.12723
10 1 Ar 0 5.12723 10.2545
11 1 Ar 0 5.12723 15.3817
12 1 Ar 0 5.12723 20.5089
13 1 Ar 0 5.12723 25.6362
14 1 Ar 0 5.12723 30.7634
15 1 Ar 0 5.12723 35.8906
16 1 Ar 0 10.2545 0
17 1 Ar 0 10.2545 5.12723
18 1 Ar 0 10.2545 10.2545
19 1 Ar 0 10.2545 15.3817
20 1 Ar 0 10.2545 20.5089
21 1 Ar 0 10.2545 25.6362
22 1 Ar 0 10.2545 30.7634
23 1 Ar 0 10.2545 35.8906
24 1 Ar 0 15.3817 0
25 1 Ar 0 15.3817 5.12723
26 1 Ar 0 15.3817 10.2545
27 1 Ar 0 15.3817 15.3817
28 1 Ar 0 15.3817 20.5089
29 1 Ar 0 15.3817 25.6362
30 1 Ar 0 15.3817 30.7634
31 1 Ar 0 15.3817 35.8906
32 1 Ar 0 20.5089 0
33 1 Ar 0 20.5089 5.12723
34 1 Ar 0 20.5089 10.2545
35 1 Ar 0 20.5089 15.3817
36 1 Ar 0 20.5089 20.5089
37 1 Ar 0 20.5089 25.6362
38 1 Ar 0 20.5089 30.7634
39 1 Ar 0 20.5089 35.8906
40 1 Ar 0 25.6362 0
41 1 Ar 0 25.6362 5.12723
42 1 Ar 0 25.6362 10.2545
43 1 Ar 0 25.6362 15.3817
44 1 Ar 0 25.6362 20.5089
45 1 Ar 0 25.6362 25.6362
46 1 Ar 0 25.6362 30.7634
47 1 Ar 0 25.6362 35.8906
48 1 Ar 0 30.7634 0
49 1 Ar 0 30.7634 5.12723
50 1 Ar 0 30.7634 10.2545
51 1 Ar 0 30.7634 15.3817
52 1 Ar 0 30.7634 20.5089
53 1 Ar 0 30.7634 25.6362
54 1 Ar 0 30.7634 30.7634
55 1 Ar 0 30.7634 35.8906
56 1 Ar 0 35.8906 0
57 1 Ar 0 35.8906 5.12723
58 1 Ar 0 35.8906 10.2545
59 1 Ar 0 35.8906 15.3817
60 1 Ar 0 35.8906 20.5089
61 1 Ar 0 35.8906 25.6362
62 1 Ar 0 35.8906 30.7634
63 1 Ar 0 35.8906 35.8906
64 1 Ar 5.12723 0 0
65 1 Ar 5.12723 0 5.12723
66 1 Ar 5.12723 0 10.2545
67 1 Ar 5.12723 0 15.3817
68 1 Ar 5.12723 0 20.5089
69 1 Ar 5.12723 0 25.6362
70 1 Ar 5.12723 0 30.7634
71 1 Ar 5.12723 0 35.8906
72 1 Ar 5.12723 5.12723 0
73 1 Ar 5.12723 5.12723 5.12723
74 1 Ar 5.12723 5.12723 10.2545
75 1 Ar 5.12723 5.12723 15.3817
76 1 Ar 5.12723 5.12723 20.5089
77 1 Ar 5.12723 5.12723 25.6362
78 1 Ar 5.12723 5.12723 30.7634
79 1 Ar 5.12723 5.12723 35.8906
80 1 Ar 5.12723 10.2545 0
81 1 Ar 5.12723 10.2545 5.12723
82 1 Ar 5.12723 10.2545 10.2545
83 1 Ar 5.12723 10.2545 15.3817
84 1 Ar 5.12723 10.2545 20.5089
85 1 Ar 5.12723 10.2545 25.6362
86 1 Ar 5.12723 10.2545 30.7634
87 1 Ar 5.12723 10.2545 35.8906
88 1 Ar 5.12723 15.3817 0
89 1 Ar 5.12723 15.3817 5.12723
90 1 Ar 5.12723 15.3817 10.2545
91 1 Ar 5.12723 15.3817 15.3817
92 1 Ar 5.12723 15.3817 20.5089
93 1 Ar 5.12723 15.3817 25.6362
94 1 Ar 5.12723 15.3817 30.7634
95 1 Ar 5.12723 15.3817 35.8906
96 1 Ar 5.12723 20.5089 0
97 1 Ar 5.12723 20.5089 5.12723
98 1 Ar 5.12723 20.5089 10.2545
99 1 Ar 5.12723 20.5089 15.3817
100 1 Ar 5.12723 20.5089 20.5089
101 1 Ar 5.12723 20.5089 25.6362
102 1 Ar 5.12723 20.5089 30.7634
103 1 Ar 5.12723 20.5089 35.8906
104 1 Ar 5.12723 25.6362 0
105 1 Ar 5.12723 25.6362 5.12723
106 1 Ar 5.12723 25.6362 10.2545
107 1 Ar 5.12723 25.6362 15.3817
108 1 Ar 5.12723 25.6362 20.5089
109 1 Ar 5.12723 25.6362 25.6362
110 1 Ar 5.12723 25.6362 30.7634
111 1 Ar 5.12723 25.6362 35.8906
112 1 Ar 5.12723 30.7634 0
113 1 Ar 5.12723 30.7634 5.12723
114 1 Ar 5.12723 30.7634 10.2545
115 1 Ar 5.12723 30.7634 15.3817
116 1 Ar 5.12723 30.7634 20.5089
117 1 Ar 5.12723 30.7634 25.6362
118 1 Ar 5.12723 30.7634 30.7634
119 1 Ar 5.12723 30.7634 35.8906
120 1 Ar 5.12723 35.8906 0
121 1 Ar 5.12723 35.8906 5.12723
122 1 Ar 5.12723 35.8906 10.2545
123 1 Ar 5.12723 35.8906 15.3817
124 1 Ar 5.12723 35.8906 20.5089
125 1 Ar 5.12723 35.8906 25.6362
126 1 Ar 5.12723 35.8906 30.7634
127 1 Ar 5.12723 35.8906 35.8906
128 1 Ar 10.2545 0 0
129 1 Ar 10.2545 0 5.12723
130 1 Ar 10.2545 0 10.2545
131 1 Ar 10.2545 0 15.3817
132 1 Ar 10.2545 0 20.5089
133 1 Ar 10.2545 0 25.6362
134 1 Ar 10.2545 0 30.7634
135 1 Ar 10.2545 0 35.8906
136 1 Ar 10.2545 5.12723 0
137 1 Ar 10.2545 5.12723 5.12723
138 1 Ar 10.2545 5.12723 10.2545
139 1 Ar 10.2545 5.12723 15.3817
140 1 Ar 10.2545 5.12723 20.5089
141 1 Ar 10.2545 5.12723 25.6362
142 1 Ar 10.2545 5.12723 30.7634
143 1 Ar 10.2545 5.12723 35.8906
144 1 Ar 10.2545 10.2545 0
145 1 Ar 10.2545 10.2545 5.12723
146 1 Ar 10.2545 10.2545 10.2545
147 1 Ar 10.2545 10.2545 15.3817
148 1 Ar 10.2545 10.2545 20.5089
149 1 Ar 10.2545 10.2545 25.6362
150 1 Ar 10.2545 10.2545 30.7634
151 1 Ar 10.2545 10.2545 35.8906
152 1 Ar 10.2545 15.3817 0
153 1 Ar 10.2545 15.3817 5.12723
154 1 Ar 10.2545 15.3817 10.2545
155 1 Ar 10.2545 15.3817 15.3817
156 1 Ar 10.2545 15.3817 20.5089
157 1 Ar 10.2545 15.3817 25.6362
158 1 Ar 10.2545 15.3817 30.7634
159 1 Ar 10.2545 15.3817 35.8906
160 1 Ar 10.2545 20.5089 0
161 1 Ar 10.2545 20.5089 5.12723
162 1 Ar 10.2545 20.5089 10.2545
163 1 Ar 10.2545 20.5089 15.3817
164 1 Ar 10.2545 20.5089 20.5089
165 1 Ar 10.2545 20.5089 25.6362
166 1 Ar 10.2545 20.5089 30.7634
167 1 Ar 10.2545 20.5089 35.8906
168 1 Ar 10.2545 25.6362 0
169 1 Ar 10.2545 25.6362 5.12723
170 1 Ar 10.2545 25.6362 10.2545
171 1 Ar 10.2545 25.6362 15.3817
172 1 Ar 10.2545 25.6362 20.5089
173 1 Ar 10.2545 25.6362 25.6362
174 1 Ar 10.2545 25.6362 30.7634
175 1 Ar 10.2545 25.6362 35.8906
176 1 Ar 10.2545 30.7634 0
177 1 Ar 10.2545 30.7634 5.12723
178 1 Ar 10.2545 30.7634 10.2545
179 1 Ar 10.2545 30.7634 15.3817
180 1 Ar 10.2545 30.7634 20.5089
181 1 Ar 10.2545 30.7634 25.6362
182 1 Ar 10.2545 30.7634 30.7634
183 1 Ar 10.2545 30.7634 35.8906
184 1 Ar 10.2545 35.8906 0
185 1 Ar 10.2545 35.8906 5.12723
186 1 Ar 10.2545 35.8906 10.2545
187 1 Ar 10.2545 35.8906 15.3817
188 1 Ar 10.2545 35.8906 20.5089
189 1 Ar 10.2545 35.8906 25.6362
190 1 Ar 10.2545 35.8906 30.7634
191 1 Ar 10.2545 35.8906 35.8906
192 1 Ar 15.3817 0 0
193 1 Ar 15.3817 0 5.12723
194 1 Ar 15.3817 0 10.2545
195 1 Ar 15.3817 0 15.3817
196 1 Ar 15.3817 0 20.5089
197 1 Ar 15.3817 0 25.6362
198 1 Ar 15.3817 0 30.7634
199 1 Ar 15.3817 0 35.8906
200 1 Ar 15.3817 5.12723 0
201 1 Ar 15.3817 5.12723 5.12723
202 1 Ar 15.3817 5.12723 10.2545
203 1 Ar 15.3817 5.12723 15.3817
204 1 Ar 15.3817 5.12723 20.5089
205 1 Ar 15.3817 5.12723 25.6362
206 1 Ar 15.3817 5.12723 30.7634
207 1 Ar 15.3817 5.12723 35.8906
208 1 Ar 15.3817 10.2545 0
209 1 Ar 15.3817 10.2545 5.12723
210 1 Ar 15.3817 10.2545 10.2545
211 1 Ar 15.3817 10.2545 15.3817
212 1 Ar 15.3817 10.2545 20.5089
213 1 Ar 15.3817 10.2545 25.6362
214 1 Ar 15.3817 10.2545 30.7634
215 1 Ar 15.3817 10.2545 35.8906
216 1 Ar 15.3817 15.3817 0
217 1 Ar 15.3817 15.3817 5.12723
218 1 Ar 15.3817 15.3817 10.2545
219 1 Ar 15.3817 15.3817 15.3817
220 1 Ar 15.3817 15.3817 20.5089
221 1 Ar 15.3817 15.3817 25.6362
222 1 Ar 15.3817 15.3817 30.7634
223 1 Ar 15.3817 15.3817 35.8906
224 1 Ar 15.3817 20.5089 0
225 1 Ar 15.3817 20.5089 5.12723
226 1 Ar 15.3817 20.5089 10.2545
227 1 Ar 15.3817 20.5089 15.3817
228 1 Ar 15.3817 20.5089 20.5089
229 1 Ar 15.3817 20.5089 25.6362
230 1 Ar 15.3817 20.5089 30.7634
231 1 Ar 15.3817 20.5089 35.8906
232 1 Ar 15.3817 25.6362 0
233 1 Ar 15.3817 25.6362 5.12723
234 1 Ar 15.3817 25.6362 10.2545
235 1 Ar 15.3817 25.6362 15.3817
236 1 Ar 15.3817 25.6362 20.5089
237 1 Ar 15.3817 25.6362 25.6362
238 1 Ar 15.3817 25.6362 30.7634
239 1 Ar 15.3817 25.6362 35.8906
240 1 Ar 15.3817 30.7634 0
241 1 Ar 15.3817 30.7634 5.12723
242 1 Ar 15.3817 30.7634 10.2545
243 1 Ar 15.3817 30.7634 15.3817
244 1 Ar 15.3817 30.7634 20.5089
245 1 Ar 15.3817 30.7634 25.6362
246 1 Ar 15.3817 30.7634 30.7634
247 1 Ar 15.3817 30.7634 35.8906
248 1 Ar 15.3817 35.8906 0
249 1 Ar 15.3817 35.8906 5.12723
250 1 Ar 15.3817 35.8906 10.2545
251 1 Ar 15.3817 35.8906 15.3817
252 1 Ar 15.3817 35.8906 20.5089
253 1 Ar 15.3817 35.8906 25.6362
254 1 Ar 15.3817 35.8906 30.7634
255 1 Ar 15.3817 35.8906 35.8906
256 1 Ar 20.5089 0 0
257 1 Ar 20.5089 0 5.12723
258 1 Ar 20.5089 0 10.2545
259 1 Ar 20.5089 0 15.3817
260 1 Ar 20.5089 0 20.5089
261 1 Ar 20.5089 0 25.6362
262 1 Ar 20.5089 0 30.7634
263 1 Ar 20.5089 0 35.8906
264 1 Ar 20.5089 5.12723 0
265 1 Ar 20.5089 5.12723 5.12723
266 1 Ar 20.5089 5.12723 10.2545
267 1 Ar 20.5089 5.12723 15.3817
268 1 Ar 20.5089 5.12723 20.5089
269 1 Ar 20.5089 5.12723 25.6362
270 1 Ar 20.5089 5.12723 30.7634
271 1 Ar 20.5089 5.12723 35.8906
272 1 Ar 20.5089 10.2545 0
273 1 Ar 20.5089 10.2545 5.12723
274 1 Ar 20.5089 10.2545 10.2545
275 1 Ar 20.5089 10.2545 15.3817
276 1 Ar 20.5089 10.2545 20.5089
277 1 Ar 20.5089 10.2545 25.6362
278 1 Ar 20.5089 10.2545 30.7634
279 1 Ar 20.5089 10.2545 35.8906
280 1 Ar 20.5089 15.3817 0
281 1 Ar 20.5089 15.3817 5.12723
282 1 Ar 20.5089 15.3817 10.2545
283 1 Ar 20.5089 15.3817 15.3817
284 1 Ar 20.5089 15.3817 20.5089
285 1 Ar 20.5089 15.3817 25.6362
286 1 Ar 20.5089 15.3817 30.7634
287 1 Ar 20.5089 15.3817 35.8906
288 1 Ar 20.5089 20.5089 0
289 1 Ar 20.5089 20.5089 5.12723
290 1 Ar 20.5089 20.5089 10.2545
291 1 Ar 20.5089 20.5089 15.3817
292 1 Ar 20.5089 20.5089 20.5089
293 1 Ar 20.5089 20.5089 25.6362
294 1 Ar 20.5089 20.5089 30.7634
295 1 Ar 20.5089 20.5089 35.8906
296 1 Ar 20.5089 25.6362 0
297 1 Ar 20.5089 25.6362 5.12723
298 1 Ar 20.5089 25.6362 10.2545
299 1 Ar 20.5089 25.6362 15.3817
300 1 Ar 20.5089 25.6362 20.5089
301 1 Ar 20.5089 25.6362 25.6362
302 1 Ar 20.5089 25.6362 30.7634
303 1 Ar 20.5089 25.6362 35.8906
304 1 Ar 20.5089 30.7634 0
305 1 Ar 20.5089 30.7634 5.12723
306 1 Ar 20.5089 30.7634 10.2545
307 1 Ar 20.5089 30.7634 15.3817
308 1 Ar 20.5089 30.7634 20.5089
309 1 Ar 20.5089 30.7634 25.6362
310 1 Ar 20.5089 30.7634 30.7634
311 1 Ar 20.5089 30.7634 35.8906
312 1 Ar 20.5089 35.8906 0
313 1 Ar 20.5089 35.8906 5.12723
314 1 Ar 20.5089 35.8906 10.2545
315 1 Ar 20.5089 35.8906 15.3817
316 1 Ar 20.5089 35.8906 20.5089
317 1 Ar 20.5089 35.8906 25.6362
318 1 Ar 20.5089 35.8906 30.7634
319 1 Ar 20.5089 35.8906 35.8906
320 1 Ar 25.6362 0 0
321 1 Ar 25.6362 0 5.12723
322 1 Ar 25.6362 0 10.2545
323 1 Ar 25.6362 0 15.3817
324 1 Ar 25.6362 0 20.5089
325 1 Ar 25.6362 0 25.6362
326 1 Ar 25.6362 0 30.7634
327 1 Ar 25.6362 0 35.8906
328 1 Ar 25.6362 5.12723 0
329 1 Ar 25.6362 5.12723 5.12723
330 1 Ar 25.6362 5.12723 10.2545
331 1 Ar 25.6362 5.12723 15.3817
332 1 Ar 25.6362 5.12723 20.5089
333 1 Ar 25.6362 5.12723 25.6362
334 1 Ar 25.6362 5.12723 30.7634
335 1 Ar 25.6362 5.12723 35.8906
336 1 Ar 25.6362 10.2545 0
337 1 Ar 25.6362 10.2545 5.12723
338 1 Ar 25.6362 10.2545 10.2545
339 1 Ar 25.6362 10.2545 15.3817
340 1 Ar 25.6362 10.2545 20.5089
341 1 Ar 25.6362 10.2545 25.6362
342 1 Ar 25.6362 10.2545 30.7634
343 1 Ar 25.6362 10.2545 35.8906
344 1 Ar 25.6362 15.3817 0
345 1 Ar 25.6362 15.3817 5.12723
346 1 Ar 25.6362 15.3817 10.2545
347 1 Ar 25.6362 15.3817 15.3817
348 1 Ar 25.6362 15.3817 20.5089
349 1 Ar 25.6362 15.3817 25.6362
350 1 Ar 25.6362 15.3817 30.7634
351 1 Ar 25.6362 15.3817 35.8906
352 1 Ar 25.6362 20.5089 0
353 1 Ar 25.6362 20.5089 5.12723
354 1 Ar 25.6362 20.5089 10.2545
355 1 Ar 25.6362 20.5089 15.3817
356 1 Ar 25.6362 20.5089 20.5089
357 1 Ar 25.6362 20.5089 25.6362
358 1 Ar 25.6362 20.5089 30.7634
359 1 Ar 25.6362 20.5089 35.8906
360 1 Ar 25.6362 25.6362 0
361 1 Ar 25.6362 25.6362 5.12723
362 1 Ar 25.6362 25.6362 10.2545
363 1 Ar 25.6362 25.6362 15.3817
364 1 Ar 25.6362 25.6362 20.5089
365 1 Ar 25.6362 25.6362 25.6362
366 1 Ar 25.6362 25.6362 30.7634
367 1 Ar 25.6362 25.6362 35.8906
368 1 Ar 25.6362 30.7634 0
369 1 Ar 25.6362 30.7634 5.12723
370 1 Ar 25.6362 30.7634 10.2545
371 1 Ar 25.6362 30.7634 15.3817
372 1 Ar 25.6362 30.7634 20.5089
373 1 Ar 25.6362 30.7634 25.6362
374 1 Ar 25.6362 30.7634 30.7634
375 1 Ar 25.6362 30.7634 35.8906
376 1 Ar 25.6362 35.8906 0
377 1 Ar 25.6362 35.8906 5.12723
378 1 Ar 25.6362 35.8906 10.2545
379 1 Ar 25.6362 35.8906 15.3817
380 1 Ar 25.6362 35.8906 20.5089
381 1 Ar 25.6362 35.8906 25.6362
382 1 Ar 25.6362 35.8906 30.7634
383 1 Ar 25.6362 35.8906 35.8906
384 1 Ar 30.7634 0 0
385 1 Ar 30.7634 0 5.12723
386 1 Ar 30.7634 0 10.2545
387 1 Ar 30.7634 0 15.3817
388 1 Ar 30.7634 0 20.5089
389 1 Ar 30.7634 0 25.6362
390 1 Ar 30.7634 0 30.7634
391 1 Ar 30.7634 0 35.8906
392 1 Ar 30.7634 5.12723 0
393 1 Ar 30.7634 5.12723 5.12723
394 1 Ar 30.7634 5.12723 10.2545
395 1 Ar 30.7634 5.12723 15.3817
396 1 Ar 30.7634 5.12723 20.5089
397 1 Ar 30.7634 5.12723 25.6362
398 1 Ar 30.7634 5.12723 30.7634
399 1 Ar 30.7634 5.12723 35.8906
400 1 Ar 30.7634 10.2545 0
401 1 Ar 30.7634 10.2545 5.12723
402 1 Ar 30.7634 10.2545 10.2545
403 1 Ar 30.7634 10.2545 15.3817
404 1 Ar 30.7634 10.2545 20.5089
405 1 Ar 30.7634 10.2545 25.6362
406 1 Ar 30.7634 10.2545 30.7634
407 1 Ar 30.7634 10.2545 35.8906
408 1 Ar 30.7634 15.3817 0
409 1 Ar 30.7634 15.3817 5.12723
410 1 Ar 30.7634 15.3817 10.2545
411 1 Ar 30.7634 15.3817 15.3817
412 1 Ar 30.7634 15.3817 20.5089
413 1 Ar 30.7634 15.3817 25.6362
414 1 Ar 30.7634 15.3817 30.7634
415 1 Ar 30.7634 15.3817 35.8906
416 1 Ar 30.7634 20.5089 0
417 1 Ar 30.7634 20.5089 5.12723
418 1 Ar 30.7634 20.5089 10.2545
419 1 Ar 30.7634 20.5089 15.3817
420 1 Ar 30.7634 20.5089 20.5089
421 1 Ar 30.7634 20.5089 25.6362
422 1 Ar 30.7634 20.5089 30.7634
423 1 Ar 30.7634 20.5089 35.8906
424 1 Ar 30.7634 25.6362 0
425 1 Ar 30.7634 25.6362 5.12723
426 1 Ar 30.7634 25.6362 10.2545
427 1 Ar 30.7634 25.6362 15.3817
428 1 Ar 30.7634 25.6362 20.5089
429 1 Ar 30.7634 25.6362 25.6362
430 1 Ar 30.7634 25.6362 30.7634
431 1 Ar 30.7634 25.6362 35.8906
432 1 Ar 30.7634 30.7634 0
433 1 Ar 30.7634 30.7634 5.12723
434 1 Ar 30.7634 30.7634 10.2545
435 1 Ar 30.7634 30.7634 15.3817
436 1 Ar 30.7634 30.7634 20.5089
437 1 Ar 30.7634 30.7634 25.6362
438 1 Ar 30.7634 30.7634 30.7634
439 1 Ar 30.7634 30.7634 35.8906
440 1 Ar 30.7634 35.8906 0
441 1 Ar 30.7634 35.8906 5.12723
442 1 Ar 30.7634 35.8906 10.2545
443 1 Ar 30.7634 35.8906 15.3817
444 1 Ar 30.7634 35.8906 20.5089
445 1 Ar 30.7634 35.8906 25.6362
446 1 Ar 30.7634 35.8906 30.7634
447 1 Ar 30.7634 35.8906 35.8906
448 1 Ar 35.8906 0 0
449 1 Ar 35.8906 0 5.12723
450 1 Ar 35.8906 0 10.2545
451 1 Ar 35.8906 0 15.3817
452 1 Ar 35.8906 0 20.5089
453 1 Ar 35.8906 0 25.6362
454 1 Ar 35.8906 0 30.7634
455 1 Ar 35.8906 0 35.8906
456 1 Ar 35.8906 5.12723 0
457 1 Ar 35.8906 5.12723 5.12723
458 1 Ar 35.8906 5.12723 10.2545
459 1 Ar 35.8906 5.12723 15.3817
460 1 Ar 35.8906 5.12723 20.5089
461 1 Ar 35.8906 5.12723 25.6362
462 1 Ar 35.8906 5.12723 30.7634
463 1 Ar 35.8906 5.12723 35.8906
464 1 Ar 35.8906 10.2545 0
465 1 Ar 35.8906 10.2545 5.12723
466 1 Ar 35.8906 10.2545 10.2545
467 1 Ar 35.8906 10.2545 15.3817
468 1 Ar 35.8906 10.2545 20.5089
469 1 Ar 35.8906 10.2545 25.6362
470 1 Ar 35.8906 10.2545 30.7634
471 1 Ar 35.8906 10.2545 35.8906
472 1 Ar 35.8906 15.3817 0
473 1 Ar 35.8906 15.3817 5.12723
474 1 Ar 35.8906 15.3817 10.2545
475 1 Ar 35.8906 15.3817 15.3817
476 1 Ar 35.8906 15.3817 20.5089
477 1 Ar 35.8906 15.3817 25.6362
478 1 Ar 35.8906 15.3817 30.7634
479 1 Ar 35.8906 15.3817 35.8906
480 1 Ar 35.8906 20.5089 0
481 1 Ar 35.8906 20.5089 5.12723
482 1 Ar 35.8906 20.5089 10.2545
483 1 Ar 35.8906 20.5089 15.3817
484 1 Ar 35.8906 20.5089 20.5089
485 1 Ar 35.8906 20.5089 25.6362
486 1 Ar 35.8906 20.5089 30.7634
487 1 Ar 35.8906 20.5089 35.8906
488 1 Ar 35.8906 25.6362 0
489 1 Ar 35.8906 25.6362 5.12723
490 1 Ar 35.8906 25.6362 10.2545
491 1 Ar 35.8906 25.6362 15.3817
492 1 Ar 35.8906 25.6362 20.5089
493 1 Ar 35.8906 25.6362 25.6362
494 1 Ar 35.8906 25.6362 30.7634
495 1 Ar 35.8906 25.6362 35.8906
496 1 Ar 35.8906 30.7634 0
497 1 Ar 35.8906 30.7634 5.12723
498 1 Ar 35.8906 30.7634 10.2545
499 1 Ar 35.8906 30.7634 15.3817
ITEM: TIMESTEP
19999
ITEM: NUMBER OF ATOMS
500
ITEM: BOX BOUNDS pp pp pp
0 46.1451
0 46.1451
0 46.1451
ITEM: ATOMS id type element xu yu zu
0 1 Ar 8.94494 33.5521 0.672788
1 1 Ar 11.0392 2.16679 14.286
2 1 Ar 5.07462 37.7345 10.8729
3 1 Ar 30.9071 34.8187 43.1485
4 1 Ar 40.642 2.68016 12.5798
5 1 Ar 14.9433 33.4523 28.5385
6 1 Ar 6.5349 10.2916 42.9541
7 1 Ar 30.7797 2.9136 35.4144
8 1 Ar 34.9235 14.7657 33.8691
9 1 Ar 6.127 17.4187 10.6249
10 1 Ar 1.1856 10.738 38.7345
11 1 Ar 43.52 5.04103 15.1258
12 1 Ar 4.94749 41.91 15.4238
13 1 Ar 1.34794 12.8732 19.6116
14 1 Ar 2.1767 39.9044 10.4353
15 1 Ar 31.2529 33.4054 18.7672
16 1 Ar 41.249 2.79385 23.8637
17 1 Ar 18.839 0.732058 42.6941
18 1 Ar 42.3982 16.6721 19.7003
19 1 Ar 40.3513 16.9064 16.665
20 1 Ar 4.1452 13.6853 14.9532
21 1 Ar 9.23794 45.2272 35.9698
22 1 Ar 33.441 31.5653 23.1978
23 1 Ar 38.599 46.143 38.3066
24 1 Ar 37.2911 21.8792 9.65465
25 1 Ar 9.73666 22.12 40.3901
26 1 Ar 8.88602 14.7762 10.941
27 1 Ar 15.2812 28.468 1.69273
28 1 Ar 4.82725 19.4959 18.9705
29 1 Ar 32.5557 16.3857 21.9014
30 1 Ar 22.4661 5.67359 45.8161
31 1 Ar 23.6193 0.0420334 7.22385
32 1 Ar 2.60288 20.8877 38.3772
33 1 Ar 0.765701 23.9221 3.37185
34 1 Ar 25.3019 5.39138 4.18577
35 1 Ar 11.8707 12.6734 20.4048
36 1 Ar 16.5314 16.9476 26.2341
37 1 Ar 10.3935 29.4341 6.26696
38 1 Ar 18.5227 25.4709 16.7865
39 1 Ar 23.8812 42.5564 13.2103
40 1 Ar 20.3709 46.0376 15.8373
41 1 Ar 23.1633 8.93109 20.5428
42 1 Ar 16.2629 18.7347 2.42986
43 1 Ar 40.6123 14.7289 24.7152
44 1 Ar 38.2836 18.2759 9.07668
45 1 Ar 0.288598 38.9243 17.4389
46 1 Ar 40.9258 21.2493 9.14607
47 1 Ar 45.0076 35.5039 14.661
48 1 Ar 1.4049 26.3182 16.8138
49 1 Ar 22.0287 43.225 45.651
50 1 Ar 38.08 7.77399 41.0987
51 1 Ar 8.13104 25.241 11.7292
52 1 Ar 30.471 3.93823 29.1883
53 1 Ar 43.6712 25.1603 29.5601
54 1 Ar 13.2718 35.3859 19.8969
55 1 Ar 45.6322 16.7219 16.4813
56 1 Ar 44.7065 35.7485 3.342
57 1 Ar 19.9471 17.6992 3.6183
58 1 Ar 21.3671 39.4248 39.4227
59 1 Ar 10.4034 39.8356 24.1075
60 1 Ar 37.3344 0.268287 21.3154
61 1 Ar 30.851 30.7787 3.40103
62 1 Ar 12.0244 38.1299 34.6266
63 1 Ar 1.4507 35.8567 11.0942
64 1 Ar 42.0647 0.851677 17.9146
65 1 Ar 41.0506 30.8641 19.6114
66 1 Ar 45.4818 43.0484 12.4326
67 1 Ar 14.8669 5.51779 9.49767
68 1 Ar 6.53724 36.7556 43.1661
69 1 Ar 3.43657 17.5416 29.0954
70 1 Ar 7.59271 5.31193 37.337
71 1 Ar 11.678 9.36806 27.8891
72 1 Ar 25.3174 39.9889 15.2183
73 1 Ar 43.9108 8.2536 45.7934
74 1 Ar 8.90413 23.6846 16.6929
75 1 Ar 36.2956 25.1283 43.8247
76 1 Ar 30.0706 40.4514 0.0738591
77 1 Ar 31.6232 30.713 26.457
78 1 Ar 6.65582 12.301 46.09
79 1 Ar 15.3531 5.217 5.95402
80 1 Ar 31.8061 14.4574 28.652
81 1 Ar 8.25176 41.6015 30.3599
82 1 Ar 1.05331 11.4894 12.958
83 1 Ar 35.0149 36.4494 19.1425
84 1 Ar 6.0954 7.12766 12.8185
85 1 Ar 7.93123 2.19185 24.4622
86 1 Ar 36.4776 36.7836 27.0665
87 1 Ar 18.3396 20.3776 32.5721
88 1 Ar 16.911 21.4094 21.9005
89 1 Ar 6.22196 17.2194 34.6028
90 1 Ar 10.4513 24.4118 20.6644
91 1 Ar 7.89041 20.4212 15.732
92 1 Ar 14.9897 9.36699 30.0785
93 1 Ar 40.9089 6.89394 33.9724
94 1 Ar 20.2822 8.74305 36.5079
95 1 Ar 0.575587 27.9803 4.27681
96 1 Ar 29.4908 23.1803 24.6292
97 1 Ar 6.01297 21.5002 0.721058
98 1 Ar 6.76709 18.1142 4.35074
99 1 Ar 3.61796 20.026 9.76637
100 1 Ar 44.9573 29.2919 12.3324
101 1 Ar 13.3017 18.5334 22.0115
102 1 Ar 2.96749 14.0344 27.8252
103 1 Ar 20.5685 29.8035 9.41981
104 1 Ar 4.40925 30.1038 45.1537
105 1 Ar 3.70268 23.6324 19.3431
106 1 Ar 17.1986 10.4978 40.0306
107 1 Ar 15.4222 36.791 26.2474
108 1 Ar 36.7229 10.677 45.4197
109 1 Ar 42.3234 29.8059 31.6144
110 1 Ar 6.03274 11.8931 17.8712
111 1 Ar 31.2007 14.6845 24.381
112 1 Ar 5.90592 30.0949 6.92453
113 1 Ar 36.3331 32.7968 25.2556
114 1 Ar 4.90246 28.4628 12.2883
115 1 Ar 7.67547 10.418 32.1452
116 1 Ar 4.25973 28.7171 19.8554
117 1 Ar 12.51 13.2618 10.8338
118 1 Ar 3.63991 7.44964 22.5778
119 1 Ar 26.8469 10.6526 34.6527
120 1 Ar 22.7947 41.7309 30.7468
121 1 Ar 25.479 41.8103 44.7186
122 1 Ar 23.5598 41.039 7.7103
123 1 Ar 12.7535 31.8856 8.46535
124 1 Ar 11.605 45.6213 24.1186
125 1 Ar 11.7851 45.8123 19.2913
126 1 Ar 31.0251 23.3233 31.6358
127 1 Ar 43.1536 11.9245 13.038
128 1 Ar 23.2726 12.1041 1.20807
129 1 Ar 10.8108 8.88109 3.12858
130 1 Ar 14.4516 5.56572 13.1304
131 1 Ar 13.8189 33.7649 2.20675
132 1 Ar 7.24417 22.6852 19.3738
133 1 Ar 25.7949 17.1467 3.34991
134 1 Ar 35.3949 14.2861 1.53691
135 1 Ar 24.296 25.6911 36.5436
136 1 Ar 1.96988 20.2203 16.2225
137 1 Ar 3.90491 44.7265 34.535
138 1 Ar 14.8057 8.50472 3.39429
139 1 Ar 8.04156 10.1359 20.5516
140 1 Ar 36.3718 30.8182 13.7294
141 1 Ar 7.71371 17.5147 45.5829
142 1 Ar 8.58984 24.3826 45.5133
143 1 Ar 9.6739 10.499 40.3554
144 1 Ar 37.9459 21.4562 13.8086
145 1 Ar 20.6881 35.1015 32.9183
146 1 Ar 31.6409 35.7277 5.07242
147 1 Ar 16.2756 2.63111 13.5873
148 1 Ar 0.536909 23.5166 34.4751
149 1 Ar 20.972 5.49479 34.7723
150 1 Ar 37.5368 36.6064 35.944
151 1 Ar 9.28002 30.3753 11.1144
152 1 Ar 9.20871 27.7454 20.3625
153 1 Ar 12.4327 10.2708 12.5925
154 1 Ar 43.9901 37.909 33.9489
155 1 Ar 13.3132 9.35025 18.8231
156 1 Ar 11.4709 11.5094 7.82187
157 1 Ar 36.946 39.3648 32.9631
158 1 Ar 17.3031 24.7521 24.3612
159 1 Ar 3.52642 34.1425 6.58334
160 1 Ar 9.64003 9.77672 16.8654
161 1 Ar 5.79741 22.0198 12.5143
162 1 Ar 10.8045 20.6245 11.0649
163 1 Ar 11.6585 22.1758 14.6663
164 1 Ar 20.4198 27.3142 12.9337
165 1 Ar 10.6162 22.7457 34.7895
166 1 Ar 5.03353 24.4727 2.05006
167 1 Ar 8.76296 42.7568 19.0199
168 1 Ar 18.1682 6.64675 4.05024
169 1 Ar 5.68946 26.7693 8.9869
170 1 Ar 15.1533 21.8931 39.5253
171 1 Ar 11.081 25.5446 14.6093
172 1 Ar 15.5415 43.558 26.7128
173 1 Ar 7.84949 33.7454 9.40804
174 1 Ar 7.59587 21.1502 29.7997
175 1 Ar 21.7079 4.48557 18.2065
176 1 Ar 39.8713 14.234 12.3266
177 1 Ar 6.44655 41.1444 11.0836
178 1 Ar 11.7104 33.7554 12.2019
179 1 Ar 39.5711 39.04 42.5737
180 1 Ar 41.5639 8.00023 19.6196
181 1 Ar 39.143 8.13432 16.8442
182 1 Ar 20.4136 37.9332 18.2747
183 1 Ar 8.84108 26.2162 32.913
184 1 Ar 17.7389 34.4958 0.0353544
185 1 Ar 41.1962 11.0489 27.3015
186 1 Ar 8.20108 33.4366 5.67776
187 1 Ar 7.16218 37.3649 14.0752
188 1 Ar 39.303 31.295 26.4556
189 1 Ar 18.4186 45.4984 29.7231
190 1 Ar 10.367 30.6888 45.511
191 1 Ar 27.9062 38.123 23.3129
192 1 Ar 5.88228 11.719 38.9203
193 1 Ar 37.0503 13.9931 7.85579
194 1 Ar 13.4633 1.54962 7.49867
195 1 Ar 40.0483 4.41602 20.7404
196 1 Ar 11.1686 2.18228 21.3844
197 1 Ar 20.072 4.2316 28.3907
198 1 Ar 25.0589 14.8203 32.6789
199 1 Ar 2.4864 14.6749 36.5484
200 1 Ar 16.9328 22.7181 35.4118
201 1 Ar 28.6135 31.4366 9.93375
202 1 Ar 17.3658 26.2582 10.4991
203 1 Ar 3.36908 39.4494 42.0603
204 1 Ar 14.0553 3.91407 20.9378
205 1 Ar 32.5292 26.1864 33.144
206 1 Ar 34.3789 17.242 13.291
207 1 Ar 43.3634 38.8808 13.7139
208 1 Ar 35.9253 5.24903 13.2555
209 1 Ar 16.8633 8.79948 8.08119
210 1 Ar 36.0932 5.00606 26.786
211 1 Ar 16.0823 12.24 10.3653
212 1 Ar 24.7999 4.91194 20.2675
213 1 Ar 16.2722 6.96706 40.356
214 1 Ar 9.0728 41.5141 35.2763
215 1 Ar 6.85847 37.5364 1.76445
216 1 Ar 9.84383 15.7188 1.61637
217 1 Ar 16.2852 44.4402 14.8422
218 1 Ar 11.6632 15.5223 6.2822
219 1 Ar 16.6347 13.1659 15.1144
220 1 Ar 14.6378 19.7372 18.1266
221 1 Ar 11.3651 6.97108 30.8327
222 1 Ar 9.29023 14.0056 15.715
223 1 Ar 14.6384 13.1154 38.202
224 1 Ar 8.69605 25.7914 6.31857
225 1 Ar 12.8396 17.7554 1.89041
226 1 Ar 14.9544 21.9249 12.5141
227 1 Ar 40.8254 38.1539 24.9575
228 1 Ar 15.1324 23.4588 15.4709
229 1 Ar 4.19657 28.6716 33.3086
230 1 Ar 31.1657 13.5159 15.3138
231 1 Ar 17.3551 18.0531 12.1859
232 1 Ar 32.2018 8.75755 18.2183
233 1 Ar 8.73038 23.2352 2.4277
234 1 Ar 18.705 23.5184 13.0382
235 1 Ar 12.0979 26.4935 10.8921
236 1 Ar 45.3313 29.684 17.1992
237 1 Ar 23.0123 16.0938 35.0914
238 1 Ar 7.57944 30.1791 31.6263
239 1 Ar 33.2617 30.6004 32.3087
240 1 Ar 19.6455 13.868 6.31831
241 1 Ar 12.022 24.4779 4.18398
242 1 Ar 33.3129 11.4267 6.01099
243 1 Ar 14.3661 31.9826 19.0906
244 1 Ar 15.7814 20.2545 24.9645
245 1 Ar 19.4831 22.4279 17.9357
246 1 Ar 14.9194 33.9743 24.2426
247 1 Ar 24.932 45.2461 41.8475
248 1 Ar 22.3904 0.192175 44.3263
249 1 Ar 15.3167 0.656288 22.5983
250 1 Ar 10.5474 29.3557 14.9502
251 1 Ar 15.2339 10.994 25.6419
252 1 Ar 18.7621 35.6066 25.8501
253 1 Ar 5.18708 45.9891 44.07
254 1 Ar 13.5671 22.6624 21.5331
255 1 Ar 8.60095 7.8086 28.8846
256 1 Ar 14.1988 10.9274 41.9813
257 1 Ar 24.7527 2.32038 16.7887
258 1 Ar 19.1164 6.25278 16.5952
259 1 Ar 23.7722 43.4107 25.6123
260 1 Ar 18.4919 4.64235 24.9227
261 1 Ar 13.8147 42.1361 17.3494
262 1 Ar 19.337 2.38486 31.3648
263 1 Ar 23.7479 2.44624 31.0525
264 1 Ar 42.4085 37.1273 10.7048
265 1 Ar 14.3619 46.0053 3.38252
266 1 Ar 18.8522 6.00587 20.9282
267 1 Ar 25.5034 11.2254 18.9341
268 1 Ar 22.2331 3.63371 22.3265
269 1 Ar 28.8124 14.6426 42.7671
270 1 Ar 21.8616 0.5467 27.3293
271 1 Ar 25.4316 15.2 42.496
272 1 Ar 33.7565 45.0527 28.1114
273 1 Ar 21.262 16.1564 22.7754
274 1 Ar 30.7853 13.5563 4.92285
275 1 Ar 15.1333 9.22532 21.9887
276 1 Ar 39.2234 17.8324 27.1121
277 1 Ar 16.381 6.58282 27.0254
278 1 Ar 19.601 12.4388 28.988
279 1 Ar 23.2603 10.9783 38.6371
280 1 Ar 25.8017 36.7653 45.0606
281 1 Ar 11.1721 11.8934 0.0994063
282 1 Ar 25.614 15.0462 7.25866
283 1 Ar 18.3541 16.815 15.3127
284 1 Ar 23.7332 9.73678 24.5075
285 1 Ar 20.629 17.14 27.8173
286 1 Ar 27.1432 11.8376 38.1334
287 1 Ar 18.4557 23.3196 27.4364
288 1 Ar 20.7654 1.78759 9.45315
289 1 Ar 9.58189 20.3926 44.0532
290 1 Ar 7.83116 44.0504 9.13611
291 1 Ar 19.7461 19.9691 14.8883
292 1 Ar 10.8834 17.1878 15.4692
293 1 Ar 17.6214 17.275 29.3734
294 1 Ar 43.032 38.5941 30.2348
295 1 Ar 10.4225 27.4889 40.5837
296 1 Ar 24.1402 10.4287 28.2859
297 1 Ar 33.955 34.9834 24.0218
298 1 Ar 29.9118 44.9067 18.1937
299 1 Ar 3.66727 11.1208 9.82773
300 1 Ar 37.0634 12.5063 24.2272
301 1 Ar 9.13036 35.4294 35.5828
302 1 Ar 10.6679 32.0284 23.6261
303 1 Ar 5.15865 36.3949 39.2932
304 1 Ar 10.8723 35.9156 8.86956
305 1 Ar 11.4447 22.6475 7.51111
306 1 Ar 15.0997 15.2641 3.4922
307 1 Ar 42.2507 8.40051 12.4184
308 1 Ar 22.0863 27.3487 25.6699
309 1 Ar 31.9821 43.013 19.8969
310 1 Ar 19.1381 43.3297 24.9696
311 1 Ar 23.0688 20.1997 1.49902
312 1 Ar 25.4213 23.391 44.6089
313 1 Ar 28.0112 37.7385 6.00461
314 1 Ar 30.0133 16.9175 16.2473
315 1 Ar 2.43884 22.1361 43.309
316 1 Ar 34.1136 42.3392 31.1724
317 1 Ar 11.6877 41.2905 30.4121
318 1 Ar 16.1895 33.6087 13.2844
319 1 Ar 34.0516 33.9465 27.9567
320 1 Ar 43.0915 18.3188 37.9094
321 1 Ar 17.5475 5.45639 37.5034
322 1 Ar 21.2945 11.9828 21.9638
323 1 Ar 24.3713 37.8319 26.94
324 1 Ar 14.8248 28.7735 13.2203
325 1 Ar 34.7325 33.0086 15.6759
326 1 Ar 22.1602 5.46376 31.3946
327 1 Ar 27.0535 35.1414 18.2576
328 1 Ar 31.386 9.84519 9.06696
329 1 Ar 2.43721 0.755361 39.6916
330 1 Ar 24.3861 3.17718 9.87516
331 1 Ar 4.28261 13.8746 41.3735
332 1 Ar 13.6666 0.973305 16.7609
333 1 Ar 23.6398 4.29008 26.5201
334 1 Ar 40.3309 43.0921 9.54786
335 1 Ar 21.3802 7.75829 40.4925
336 1 Ar 25.0092 35.5056 14.1577
337 1 Ar 24.588 6.87945 8.07736
338 1 Ar 16.4448 2.98112 44.9532
339 1 Ar 19.0456 15.1609 10.51
340 1 Ar 27.5724 3.98318 17.9251
341 1 Ar 11.069 44.1815 14.5303
342 1 Ar 25.5915 15.6648 46.0492
343 1 Ar 1.93741 32.9016 38.4606
344 1 Ar 9.86829 30.7256 3.01185
345 1 Ar 1.66185 18.3327 19.1785
346 1 Ar 17.4414 21.2348 5.34739
347 1 Ar 13.9997 26.1384 24.102
348 1 Ar 18.2544 2.49971 21.1818
349 1 Ar 22.7244 13.9837 27.6128
350 1 Ar 23.5456 11.3105 31.7583
351 1 Ar 39.1136 2.66849 17.5403
352 1 Ar 25.0299 31.6907 37.7995
353 1 Ar 31.4387 19.6395 7.0343
354 1 Ar 32.8468 25.2576 9.42069
355 1 Ar 7.77217 14.6923 41.3471
356 1 Ar 2.43174 34.3352 25.6679
357 1 Ar 27.5081 17.416 36.2952
358 1 Ar 41.5186 11.035 3.56199
359 1 Ar 26.0338 19.1336 27.0488
360 1 Ar 14.0153 36.4907 32.15
361 1 Ar 10.5749 15.9831 19.2514
362 1 Ar 27.6667 23.3467 10.5495
363 1 Ar 27.0192 28.4724 6.55153
364 1 Ar 29.2762 41.5319 37.0346
365 1 Ar 36.284 27.6357 33.3994
366 1 Ar 28.1196 20.5011 29.7908
367 1 Ar 24.622 20.7858 30.0022
368 1 Ar 1.79338 27.5629 9.28378
369 1 Ar 35.4973 1.22021 36.2993
370 1 Ar 31.5951 1.40658 22.2561
371 1 Ar 7.09421 24.606 22.4535
372 1 Ar 14.3148 28.7096 8.92351
373 1 Ar 21.4019 26.1969 18.7986
374 1 Ar 24.7947 30.8161 27.7465
375 1 Ar 13.3286 46.0804 12.5833
376 1 Ar 25.0542 42.6999 19.9891
377 1 Ar 12.1912 36.1696 29.3846
378 1 Ar 24.1389 28.7902 11.8209
379 1 Ar 24.3931 0.315742 20.5642
380 1 Ar 21.6556 33.2256 13.607
381 1 Ar 29.4307 30.7442 20.2972
382 1 Ar 16.141 24.9968 2.06024
383 1 Ar 24.5995 40.2981 24.0726
384 1 Ar 42.4426 43.7162 44.6542
385 1 Ar 18.1913 6.06147 43.4327
386 1 Ar 14.5058 13.8028 27.7575
387 1 Ar 29.8306 4.09527 11.7024
388 1 Ar 25.1945 6.66178 23.7959
389 1 Ar 6.90187 32.1232 19.2947
390 1 Ar 29.3506 7.79214 26.0295
391 1 Ar 35.4969 2.69792 33.2016
392 1 Ar 33.981 44.3917 34.3858
393 1 Ar 40.0749 18.6423 41.2157
394 1 Ar 30.7974 9.1764 23.0965
395 1 Ar 31.2912 28.9909 40.6577
396 1 Ar 19.1711 23.0107 38.975
397 1 Ar 27.7948 7.04149 21.8321
398 1 Ar 26.8114 23.7429 4.25023
399 1 Ar 20.5418 3.42112 37.9962
400 1 Ar 28.3656 12.8068 9.1996
401 1 Ar 24.8671 14.3943 38.1203
402 1 Ar 27.6633 2.30527 1.95279
403 1 Ar 30.4473 9.12313 12.7212
404 1 Ar 17.9898 7.46818 31.9419
405 1 Ar 40.3219 16.5983 34.1017
406 1 Ar 16.2337 3.22499 27.3548
407 1 Ar 27.7424 39.6775 18.1658
408 1 Ar 31.7435 17.0263 3.99448
409 1 Ar 39.4668 19.3627 18.9951
410 1 Ar 32.7735 7.2137 6.32944
411 1 Ar 0.6199 31.9297 4.07435
412 1 Ar 32.4519 18.4047 25.3096
413 1 Ar 44.9649 8.98795 42.6314
414 1 Ar 35.1862 14.2664 29.743
415 1 Ar 31.6922 10.7114 30.0823
416 1 Ar 37.2387 7.08802 45.8825
417 1 Ar 30.189 22.1115 3.37644
418 1 Ar 9.41082 38.8349 28.1989
419 1 Ar 11.8065 38.4189 14.8343
420 1 Ar 34.4398 16.6786 17.6431
421 1 Ar 28.6133 19.4106 23.0915
422 1 Ar 10.2136 9.87069 34.9216
423 1 Ar 44.6241 13.9869 0.0765131
424 1 Ar 17.2077 39.0404 45.8542
425 1 Ar 31.0853 24.625 5.59856
426 1 Ar 34.6421 22.3569 6.48693
427 1 Ar 23.3618 17.7052 19.1156
428 1 Ar 27.85 28.9572 16.6752
429 1 Ar 32.8686 44.1245 38.7821
430 1 Ar 41.3808 15.5239 1.08002
431 1 Ar 25.6206 23.7173 33.884
432 1 Ar 1.78009 42.3891 43.018
433 1 Ar 30.8481 29.5199 6.87303
434 1 Ar 40.5716 14.5721 31.0184
435 1 Ar 8.35019 18.9495 19.3746
436 1 Ar 30.9605 39.2817 26.4431
437 1 Ar 35.6093 38.9567 39.1921
438 1 Ar 34.7698 28.7159 27.2155
439 1 Ar 28.7698 34.1108 12.5337
440 1 Ar 25.2054 27.5724 43.344
441 1 Ar 6.62987 42.0554 26.1483
442 1 Ar 38.5487 34.0018 17.7629
443 1 Ar 5.67123 33.6054 2.13902
444 1 Ar 14.5676 25.8589 38.9114
445 1 Ar 1.42085 4.35745 33.8855