ITEM: TIMESTEP
-1
ITEM: NUMBER OF ATOMS
500
ITEM: BOX BOUNDS pp pp pp
0 46.1451
0 46.1451
0 46.1451
ITEM: ATOMS id type element xu yu zu
0 1 Ar 0 0 0
1 1 Ar 0 0 5.12723
2 1 Ar 0 0 10.2545
3 1 Ar 0 0 15.3817
4 1 Ar 0 0 20.5089
5 1 Ar 0 0 25.6362
6 1 Ar 0 0 30.7634
7 1 Ar 0 0 35.8906
8 1 Ar 0 5.12723 0
9 1 Ar 0 5.12723 5.12723
10 1 Ar 0 5.12723 10.2545
11 1 Ar 0 5.12723 15.3817
12 1 Ar 0 5.12723 20.5089
13 1 Ar 0 5.12723 25.6362
14 1 Ar 0 5.12723 30.7634
15 1 Ar 0 5.12723 35.8906
16 1 Ar 0 10.2545 0
17 1 Ar 0 10.2545 5.12723
18 1 Ar 0 10.2545 10.2545
19 1 Ar 0 10.2545 15.3817
20 1 Ar 0 10.2545 20.5089
21 1 Ar 0 10.2545 25.6362
22 1 Ar 0 10.2545 30.7634
23 1 Ar 0 10.2545 35.8906
24 1 Ar 0 15.3817 0
25 1 Ar 0 15.3817 5.12723
26 1 Ar 0 15.3817 10.2545
27 1 Ar 0 15.3817 15.3817
28 1 Ar 0 15.3817 20.5089
29 1 Ar 0 15.3817 25.6362
30 1 Ar 0 15.3817 30.7634
31 1 Ar 0 15.3817 35.8906
32 1 Ar 0 20.5089 0
33 1 Ar 0 20.5089 5.12723
34 1 Ar 0 20.5089 10.2545
35 1 Ar 0 20.5089 15.3817
36 1 Ar 0 20.5089 20.5089
37 1 Ar 0 20.5089 25.6362
38 1 Ar 0 20.5089 30.7634
39 1 Ar 0 20.5089 35.8906
40 1 Ar 0 25.6362 0
41 1 Ar 0 25.6362 5.12723
42 1 Ar 0 25.6362 10.2545
43 1 Ar 0 25.6362 15.3817
44 1 Ar 0 25.6362 20.5089
45 1 Ar 0 25.6362 25.6362
46 1 Ar 0 25.6362 30.7634
47 1 Ar 0 25.6362 35.8906
48 1 Ar 0 30.7634 0
49 1 Ar 0 30.7634 5.12723
50 1 Ar 0 30.7634 10.2545
51 1 Ar 0 30.7634 15.3817
52 1 Ar 0 30.7634 20.5089
53 1 Ar 0 30.7634 25.6362
54 1 Ar 0 30.7634 30.7634
55 1 Ar 0 30.7634 35.8906
56 1 Ar 0 35.8906 0
57 1 Ar 0 35.8906 5.12723
58 1 Ar 0 35.8906 10.2545
59 1 Ar 0 35.8906 15.3817
60 1 Ar 0 35.8906 20.5089
61 1 Ar 0 35.8906 25.6362
62 1 Ar 0 35.8906 30.7634
63 1 Ar 0 35.8906 35.8906
64 1 Ar 5.12723 0 0
65 1 Ar 5.12723 0 5.12723
66 1 Ar 5.12723 0 10.2545
67 1 Ar 5.12723 0 15.3817
68 1 Ar 5.12723 0 20.5089
69 1 Ar 5.12723 0 25.6362
70 1 Ar 5.12723 0 30.7634
71 1 Ar 5.12723 0 35.8906
72 1 Ar 5.12723 5.12723 0
73 1 Ar 5.12723 5.12723 5.12723
74 1 Ar 5.12723 5.12723 10.2545
75 1 Ar 5.12723 5.12723 15.3817
76 1 Ar 5.12723 5.12723 20.5089
77 1 Ar 5.12723 5.12723 25.6362
78 1 Ar 5.12723 5.12723 30.7634
79 1 Ar 5.12723 5.12723 35.8906
80 1 Ar 5.12723 10.2545 0
81 1 Ar 5.12723 10.2545 5.12723
82 1 Ar 5.12723 10.2545 10.2545
83 1 Ar 5.12723 10.2545 15.3817
84 1 Ar 5.12723 10.2545 20.5089
85 1 Ar 5.12723 10.2545 25.6362
86 1 Ar 5.12723 10.2545 30.7634
87 1 Ar 5.12723 10.2545 35.8906
88 1 Ar 5.12723 15.3817 0
89 1 Ar 5.12723 15.3817 5.12723
90 1 Ar 5.12723 15.3817 10.2545
91 1 Ar 5.12723 15.3817 15.3817
92 1 Ar 5.12723 15.3817 20.5089
93 1 Ar 5.12723 15.3817 25.6362
94 1 Ar 5.12723 15.3817 30.7634
95 1 Ar 5.12723 15.3817 35.8906
96 1 Ar 5.12723 20.5089 0
97 1 Ar 5.12723 20.5089 5.12723
98 1 Ar 5.12723 20.5089 10.2545
99 1 Ar 5.12723 20.5089 15.3817
100 1 Ar 5.12723 20.5089 20.5089
101 1 Ar 5.12723 20.5089 25.6362
102 1 Ar 5.12723 20.5089 30.7634
103 1 Ar 5.12723 20.5089 35.8906
104 1 Ar 5.12723 25.6362 0
105 1 Ar 5.12723 25.6362 5.12723
106 1 Ar 5.12723 25.6362 10.2545
107 1 Ar 5.12723 25.6362 15.3817
108 1 Ar 5.12723 25.6362 20.5089
109 1 Ar 5.12723 25.6362 25.6362
110 1 Ar 5.12723 25.6362 30.7634
111 1 Ar 5.12723 25.6362 35.8906
112 1 Ar 5.12723 30.7634 0
113 1 Ar 5.12723 30.7634 5.12723
114 1 Ar 5.12723 30.7634 10.2545
115 1 Ar 5.12723 30.7634 15.3817
116 1 Ar 5.12723 30.7634 20.5089
117 1 Ar 5.12723 30.7634 25.6362
118 1 Ar 5.12723 30.7634 30.7634
119 1 Ar 5.12723 30.7634 35.8906
120 1 Ar 5.12723 35.8906 0
121 1 Ar 5.12723 35.8906 5.12723
122 1 Ar 5.12723 35.8906 10.2545
123 1 Ar 5.12723 35.8906 15.3817
124 1 Ar 5.12723 35.8906 20.5089
125 1 Ar 5.12723 35.8906 25.6362
126 1 Ar 5.12723 35.8906 30.7634
127 1 Ar 5.12723 35.8906 35.8906
128 1 Ar 10.2545 0 0
129 1 Ar 10.2545 0 5.12723
130 1 Ar 10.2545 0 10.2545
131 1 Ar 10.2545 0 15.3817
132 1 Ar 10.2545 0 20.5089
133 1 Ar 10.2545 0 25.6362
134 1 Ar 10.2545 0 30.7634
135 1 Ar 10.2545 0 35.8906
136 1 Ar 10.2545 5.12723 0
137 1 Ar 10.2545 5.12723 5.12723
138 1 Ar 10.2545 5.12723 10.2545
139 1 Ar 10.2545 5.12723 15.3817
140 1 Ar 10.2545 5.12723 20.5089
141 1 Ar 10.2545 5.12723 25.6362
142 1 Ar 10.2545 5.12723 30.7634
143 1 Ar 10.2545 5.12723 35.8906
144 1 Ar 10.2545 10.2545 0
145 1 Ar 10.2545 10.2545 5.12723
146 1 Ar 10.2545 10.2545 10.2545
147 1 Ar 10.2545 10.2545 15.3817
148 1 Ar 10.2545 10.2545 20.5089
149 1 Ar 10.2545 10.2545 25.6362
150 1 Ar 10.2545 10.2545 30.7634
151 1 Ar 10.2545 10.2545 35.8906
152 1 Ar 10.2545 15.3817 0
153 1 Ar 10.2545 15.3817 5.12723
154 1 Ar 10.2545 15.3817 10.2545
155 1 Ar 10.2545 15.3817 15.3817
156 1 Ar 10.2545 15.3817 20.5089
157 1 Ar 10.2545 15.3817 25.6362
158 1 Ar 10.2545 15.3817 30.7634
159 1 Ar 10.2545 15.3817 35.8906
160 1 Ar 10.2545 20.5089 0
161 1 Ar 10.2545 20.5089 5.12723
162 1 Ar 10.2545 20.5089 10.2545
163 1 Ar 10.2545 20.5089 15.3817
164 1 Ar 10.2545 20.5089 20.5089
165 1 Ar 10.2545 20.5089 25.6362
166 1 Ar 10.2545 20.5089 30.7634
167 1 Ar 10.2545 20.5089 35.8906
168 1 Ar 10.2545 25.6362 0
169 1 Ar 10.2545 25.6362 5.12723
170 1 Ar 10.2545 25.6362 10.2545
171 1 Ar 10.2545 25.6362 15.3817
172 1 Ar 10.2545 25.6362 20.5089
173 1 Ar 10.2545 25.6362 25.6362
174 1 Ar 10.2545 25.6362 30.7634
175 1 Ar 10.2545 25.6362 35.8906
176 1 Ar 10.2545 30.7634 0
177 1 Ar 10.2545 30.7634 5.12723
178 1 Ar 10.2545 30.7634 10.2545
179 1 Ar 10.2545 30.7634 15.3817
180 1 Ar 10.2545 30.7634 20.5089
181 1 Ar 10.2545 30.7634 25.6362
182 1 Ar 10.2545 30.7634 30.7634
183 1 Ar 10.2545 30.7634 35.8906
184 1 Ar 10.2545 35.8906 0
185 1 Ar 10.2545 35.8906 5.12723
186 1 Ar 10.2545 35.8906 10.2545
187 1 Ar 10.2545 35.8906 15.3817
188 1 Ar 10.2545 35.8906 20.5089
189 1 Ar 10.2545 35.8906 25.6362
190 1 Ar 10.2545 35.8906 30.7634
191 1 Ar 10.2545 35.8906 35.8906
192 1 Ar 15.3817 0 0
193 1 Ar 15.3817 0 5.12723
194 1 Ar 15.3817 0 10.2545
195 1 Ar 15.3817 0 15.3817
196 1 Ar 15.3817 0 20.5089
197 1 Ar 15.3817 0 25.6362
198 1 Ar 15.3817 0 30.7634
199 1 Ar 15.3817 0 35.8906
200 1 Ar 15.3817 5.12723 0
201 1 Ar 15.3817 5.12723 5.12723
202 1 Ar 15.3817 5.12723 10.2545
203 1 Ar 15.3817 5.12723 15.3817
204 1 Ar 15.3817 5.12723 20.5089
205 1 Ar 15.3817 5.12723 25.6362
206 1 Ar 15.3817 5.12723 30.7634
207 1 Ar 15.3817 5.12723 35.8906
208 1 Ar 15.3817 10.2545 0
209 1 Ar 15.3817 10.2545 5.12723
210 1 Ar 15.3817 10.2545 10.2545
211 1 Ar 15.3817 10.2545 15.3817
212 1 Ar 15.3817 10.2545 20.5089
213 1 Ar 15.3817 10.2545 25.6362
214 1 Ar 15.3817 10.2545 30.7634
215 1 Ar 15.3817 10.2545 35.8906
216 1 Ar 15.3817 15.3817 0
217 1 Ar 15.3817 15.3817 5.12723
218 1 Ar 15.3817 15.3817 10.2545
219 1 Ar 15.3817 15.3817 15.3817
220 1 Ar 15.3817 15.3817 20.5089
221 1 Ar 15.3817 15.3817 25.6362
222 1 Ar 15.3817 15.3817 30.7634
223 1 Ar 15.3817 15.3817 35.8906
224 1 Ar 15.3817 20.5089 0
225 1 Ar 15.3817 20.5089 5.12723
226 1 Ar 15.3817 20.5089 10.2545
227 1 Ar 15.3817 20.5089 15.3817
228 1 Ar 15.3817 20.5089 20.5089
229 1 Ar 15.3817 20.5089 25.6362
230 1 Ar 15.3817 20.5089 30.7634
231 1 Ar 15.3817 20.5089 35.8906
232 1 Ar 15.3817 25.6362 0
233 1 Ar 15.3817 25.6362 5.12723
234 1 Ar 15.3817 25.6362 10.2545
235 1 Ar 15.3817 25.6362 15.3817
236 1 Ar 15.3817 25.6362 20.5089
237 1 Ar 15.3817 25.6362 25.6362
238 1 Ar 15.3817 25.6362 30.7634
239 1 Ar 15.3817 25.6362 35.8906
240 1 Ar 15.3817 30.7634 0
241 1 Ar 15.3817 30.7634 5.12723
242 1 Ar 15.3817 30.7634 10.2545
243 1 Ar 15.3817 30.7634 15.3817
244 1 Ar 15.3817 30.7634 20.5089
245 1 Ar 15.3817 30.7634 25.6362
246 1 Ar 15.3817 30.7634 30.7634
247 1 Ar 15.3817 30.7634 35.8906
248 1 Ar 15.3817 35.8906 0
249 1 Ar 15.3817 35.8906 5.12723
250 1 Ar 15.3817 35.8906 10.2545
251 1 Ar 15.3817 35.8906 15.3817
252 1 Ar 15.3817 35.8906 20.5089
253 1 Ar 15.3817 35.8906 25.6362
254 1 Ar 15.3817 35.8906 30.7634
255 1 Ar 15.3817 35.8906 35.8906
256 1 Ar 20.5089 0 0
257 1 Ar 20.5089 0 5.12723
258 1 Ar 20.5089 0 10.2545
259 1 Ar 20.5089 0 15.3817
260 1 Ar 20.5089 0 20.5089
261 1 Ar 20.5089 0 25.6362
262 1 Ar 20.5089 0 30.7634
263 1 Ar 20.5089 0 35.8906
264 1 Ar 20.5089 5.12723 0
265 1 Ar 20.5089 5.12723 5.12723
266 1 Ar 20.5089 5.12723 10.2545
267 1 Ar 20.5089 5.12723 15.3817
268 1 Ar 20.5089 5.12723 20.5089
269 1 Ar 20.5089 5.12723 25.6362
270 1 Ar 20.5089 5.12723 30.7634
271 1 Ar 20.5089 5.12723 35.8906
272 1 Ar 20.5089 10.2545 0
273 1 Ar 20.5089 10.2545 5.12723
274 1 Ar 20.5089 10.2545 10.2545
275 1 Ar 20.5089 10.2545 15.3817
276 1 Ar 20.5089 10.2545 20.5089
277 1 Ar 20.5089 10.2545 25.6362
278 1 Ar 20.5089 10.2545 30.7634
279 1 Ar 20.5089 10.2545 35.8906
280 1 Ar 20.5089 15.3817 0
281 1 Ar 20.5089 15.3817 5.12723
282 1 Ar 20.5089 15.3817 10.2545
283 1 Ar 20.5089 15.3817 15.3817
284 1 Ar 20.5089 15.3817 20.5089
285 1 Ar 20.5089 15.3817 25.6362
286 1 Ar 20.5089 15.3817 30.7634
287 1 Ar 20.5089 15.3817 35.8906
288 1 Ar 20.5089 20.5089 0
289 1 Ar 20.5089 20.5089 5.12723
290 1 Ar 20.5089 20.5089 10.2545
291 1 Ar 20.5089 20.5089 15.3817
292 1 Ar 20.5089 20.5089 20.5089
293 1 Ar 20.5089 20.5089 25.6362
294 1 Ar 20.5089 20.5089 30.7634
295 1 Ar 20.5089 20.5089 35.8906
296 1 Ar 20.5089 25.6362 0
297 1 Ar 20.5089 25.6362 5.12723
298 1 Ar 20.5089 25.6362 10.2545
299 1 Ar 20.5089 25.6362 15.3817
300 1 Ar 20.5089 25.6362 20.5089
301 1 Ar 20.5089 25.6362 25.6362
302 1 Ar 20.5089 25.6362 30.7634
303 1 Ar 20.5089 25.6362 35.8906
304 1 Ar 20.5089 30.7634 0
305 1 Ar 20.5089 30.7634 5.12723
306 1 Ar 20.5089 30.7634 10.2545
307 1 Ar 20.5089 30.7634 15.3817
308 1 Ar 20.5089 30.7634 20.5089
309 1 Ar 20.5089 30.7634 25.6362
310 1 Ar 20.5089 30.7634 30.7634
311 1 Ar 20.5089 30.7634 35.8906
312 1 Ar 20.5089 35.8906 0
313 1 Ar 20.5089 35.8906 5.12723
314 1 Ar 20.5089 35.8906 10.2545
315 1 Ar 20.5089 35.8906 15.3817
316 1 Ar 20.5089 35.8906 20.5089
317 1 Ar 20.5089 35.8906 25.6362
318 1 Ar 20.5089 35.8906 30.7634
319 1 Ar 20.5089 35.8906 35.8906
320 1 Ar 25.6362 0 0
321 1 Ar 25.6362 0 5.12723
322 1 Ar 25.6362 0 10.2545
323 1 Ar 25.6362 0 15.3817
324 1 Ar 25.6362 0 20.5089
325 1 Ar 25.6362 0 25.6362
326 1 Ar 25.6362 0 30.7634
327 1 Ar 25.6362 0 35.8906
328 1 Ar 25.6362 5.12723 0
329 1 Ar 25.6362 5.12723 5.12723
330 1 Ar 25.6362 5.12723 10.2545
331 1 Ar 25.6362 5.12723 15.3817
332 1 Ar 25.6362 5.12723 20.5089
333 1 Ar 25.6362 5.12723 25.6362
334 1 Ar 25.6362 5.12723 30.7634
335 1 Ar 25.6362 5.12723 35.8906
336 1 Ar 25.6362 10.2545 0
337 1 Ar 25.6362 10.2545 5.12723
338 1 Ar 25.6362 10.2545 10.2545
339 1 Ar 25.6362 10.2545 15.3817
340 1 Ar 25.6362 10.2545 20.5089
341 1 Ar 25.6362 10.2545 25.6362
342 1 Ar 25.6362 10.2545 30.7634
343 1 Ar 25.6362 10.2545 35.8906
344 1 Ar 25.6362 15.3817 0
345 1 Ar 25.6362 15.3817 5.12723
346 1 Ar 25.6362 15.3817 10.2545
347 1 Ar 25.6362 15.3817 15.3817
348 1 Ar 25.6362 15.3817 20.5089
349 1 Ar 25.6362 15.3817 25.6362
350 1 Ar 25.6362 15.3817 30.7634
351 1 Ar 25.6362 15.3817 35.8906
352 1 Ar 25.6362 20.5089 0
353 1 Ar 25.6362 20.5089 5.12723
354 1 Ar 25.6362 20.5089 10.2545
355 1 Ar 25.6362 20.5089 15.3817
356 1 Ar 25.6362 20.5089 20.5089
357 1 Ar 25.6362 20.5089 25.6362
358 1 Ar 25.6362 20.5089 30.7634
359 1 Ar 25.6362 20.5089 35.8906
360 1 Ar 25.6362 25.6362 0
361 1 Ar 25.6362 25.6362 5.12723
362 1 Ar 25.6362 25.6362 10.2545
363 1 Ar 25.6362 25.6362 15.3817
364 1 Ar 25.6362 25.6362 20.5089
365 1 Ar 25.6362 25.6362 25.6362
366 1 Ar 25.6362 25.6362 30.7634
367 1 Ar 25.6362 25.6362 35.8906
368 1 Ar 25.6362 30.7634 0
369 1 Ar 25.6362 30.7634 5.12723
370 1 Ar 25.6362 30.7634 10.2545
371 1 Ar 25.6362 30.7634 15.3817
372 1 Ar 25.6362 30.7634 20.5089
373 1 Ar 25.6362 30.7634 25.6362
374 1 Ar 25.6362 30.7634 30.7634
375 1 Ar 25.6362 30.7634 35.8906
376 1 Ar 25.6362 35.8906 0
377 1 Ar 25.6362 35.8906 5.12723
378 1 Ar 25.6362 35.8906 10.2545
379 1 Ar 25.6362 35.8906 15.3817
380 1 Ar 25.6362 35.8906 20.5089
381 1 Ar 25.6362 35.8906 25.6362
382 1 Ar 25.6362 35.8906 30.7634
383 1 Ar 25.6362 35.8906 35.8906
384 1 Ar 30.7634 0 0
385 1 Ar 30.7634 0 5.12723
386 1 Ar 30.7634 0 10.2545
387 1 Ar 30.7634 0 15.3817
388 1 Ar 30.7634 0 20.5089
389 1 Ar 30.7634 0 25.6362
390 1 Ar 30.7634 0 30.7634
391 1 Ar 30.7634 0 35.8906
392 1 Ar 30.7634 5.12723 0
393 1 Ar 30.7634 5.12723 5.12723
394 1 Ar 30.7634 5.12723 10.2545
395 1 Ar 30.7634 5.12723 15.3817
396 1 Ar 30.7634 5.12723 20.5089
397 1 Ar 30.7634 5.12723 25.6362
398 1 Ar 30.7634 5.12723 30.7634
399 1 Ar 30.7634 5.12723 35.8906
400 1 Ar 30.7634 10.2545 0
401 1 Ar 30.7634 10.2545 5.12723
402 1 Ar 30.7634 10.2545 10.2545
403 1 Ar 30.7634 10.2545 15.3817
404 1 Ar 30.7634 10.2545 20.5089
405 1 Ar 30.7634 10.2545 25.6362
406 1 Ar 30.7634 10.2545 30.7634
407 1 Ar 30.7634 10.2545 35.8906
408 1 Ar 30.7634 15.3817 0
409 1 Ar 30.7634 15.3817 5.12723
410 1 Ar 30.7634 15.3817 10.2545
411 1 Ar 30.7634 15.3817 15.3817
412 1 Ar 30.7634 15.3817 20.5089
413 1 Ar 30.7634 15.3817 25.6362
414 1 Ar 30.7634 15.3817 30.7634
415 1 Ar 30.7634 15.3817 35.8906
416 1 Ar 30.7634 20.5089 0
417 1 Ar 30.7634 20.5089 5.12723
418 1 Ar 30.7634 20.5089 10.2545
419 1 Ar 30.7634 20.5089 15.3817
420 1 Ar 30.7634 20.5089 20.5089
421 1 Ar 30.7634 20.5089 25.6362
422 1 Ar 30.7634 20.5089 30.7634
423 1 Ar 30.7634 20.5089 35.8906
424 1 Ar 30.7634 25.6362 0
425 1 Ar 30.7634 25.6362 5.12723
426 1 Ar 30.7634 25.6362 10.2545
427 1 Ar 30.7634 25.6362 15.3817
428 1 Ar 30.7634 25.6362 20.5089
429 1 Ar 30.7634 25.6362 25.6362
430 1 Ar 30.7634 25.6362 30.7634
431 1 Ar 30.7634 25.6362 35.8906
432 1 Ar 30.7634 30.7634 0
433 1 Ar 30.7634 30.7634 5.12723
434 1 Ar 30.7634 30.7634 10.2545
435 1 Ar 30.7634 30.7634 15.3817
436 1 Ar 30.7634 30.7634 20.5089
437 1 Ar 30.7634 30.7634 25.6362
438 1 Ar 30.7634 30.7634 30.7634
439 1 Ar 30.7634 30.7634 35.8906
440 1 Ar 30.7634 35.8906 0
441 1 Ar 30.7634 35.8906 5.12723
442 1 Ar 30.7634 35.8906 10.2545
443 1 Ar 30.7634 35.8906 15.3817
444 1 Ar 30.7634 35.8906 20.5089
445 1 Ar 30.7634 35.8906 25.6362
446 1 Ar 30.7634 35.8906 30.7634
447 1 Ar 30.7634 35.8906 35.8906
448 1 Ar 35.8906 0 0
449 1 Ar 35.8906 0 5.12723
450 1 Ar 35.8906 0 10.2545
451 1 Ar 35.8906 0 15.3817
452 1 Ar 35.8906 0 20.5089
453 1 Ar 35.8906 0 25.6362
454 1 Ar 35.8906 0 30.7634
455 1 Ar 35.8906 0 35.8906
456 1 Ar 35.8906 5.12723 0
457 1 Ar 35.8906 5.12723 5.12723
458 1 Ar 35.8906 5.12723 10.2545
459 1 Ar 35.8906 5.12723 15.3817
460 1 Ar 35.8906 5.12723 20.5089
461 1 Ar 35.8906 5.12723 25.6362
462 1 Ar 35.8906 5.12723 30.7634
463 1 Ar 35.8906 5.12723 35.8906
464 1 Ar 35.8906 10.2545 0
465 1 Ar 35.8906 10.2545 5.12723
466 1 Ar 35.8906 10.2545 10.2545
467 1 Ar 35.8906 10.2545 15.3817
468 1 Ar 35.8906 10.2545 20.5089
469 1 Ar 35.8906 10.2545 25.6362
470 1 Ar 35.8906 10.2545 30.7634
471 1 Ar 35.8906 10.2545 35.8906
472 1 Ar 35.8906 15.3817 0
473 1 Ar 35.8906 15.3817 5.12723
474 1 Ar 35.8906 15.3817 10.2545
475 1 Ar 35.8906 15.3817 15.3817
476 1 Ar 35.8906 15.3817 20.5089
477 1 Ar 35.8906 15.3817 25.6362
478 1 Ar 35.8906 15.3817 30.7634
479 1 Ar 35.8906 15.3817 35.8906
480 1 Ar 35.8906 20.5089 0
481 1 Ar 35.8906 20.5089 5.12723
482 1 Ar 35.8906 20.5089 10.2545
483 1 Ar 35.8906 20.5089 15.3817
484 1 Ar 35.8906 20.5089 20.5089
485 1 Ar 35.8906 20.5089 25.6362
486 1 Ar 35.8906 20.5089 30.7634
487 1 Ar 35.8906 20.5089 35.8906
488 1 Ar 35.8906 25.6362 0
489 1 Ar 35.8906 25.6362 5.12723
490 1 Ar 35.8906 25.6362 10.2545
491 1 Ar 35.8906 25.6362 15.3817
492 1 Ar 35.8906 25.6362 20.5089
493 1 Ar 35.8906 25.6362 25.6362
494 1 Ar 35.8906 25.6362 30.7634
495 1 Ar 35.8906 25.6362 35.8906
496 1 Ar 35.8906 30.7634 0
497 1 Ar 35.8906 30.7634 5.12723
498 1 Ar 35.8906 30.7634 10.2545
499 1 Ar 35.8906 30.7634 15.3817
ITEM: TIMESTEP
19999
ITEM: NUMBER OF ATOMS
500
ITEM: BOX BOUNDS pp pp pp
0 46.1451
0 46.1451
0 46.1451
ITEM: ATOMS id type element xu yu zu
0 1 Ar 8.37301 43.1288 15.7798
1 1 Ar 8.67659 2.99746 45.9544
2 1 Ar 13.6109 43.5136 19.4609
3 1 Ar 3.6653 36.5865 12.6946
4 1 Ar 35.8519 32.1692 7.27536
5 1 Ar 20.5586 34.296 43.284
6 1 Ar 5.91626 32.9074 22.6801
7 1 Ar 8.21416 35.6302 40.8145
8 1 Ar 5.82397 35.5634 4.70697
9 1 Ar 20.7202 0.614788 14.0431
10 1 Ar 45.5762 7.22831 22.4435
11 1 Ar 17.1758 28.0039 2.56698
12 1 Ar 10.0764 44.2641 29.4239
13 1 Ar 43.9755 10.4976 26.3537
14 1 Ar 27.6225 7.6038 5.82368
15 1 Ar 26.501 35.7022 21.1566
16 1 Ar 0.267956 1.94154 11.3969
17 1 Ar 32.698 10.2062 12.3668
18 1 Ar 4.72734 7.211 20.0291
19 1 Ar 31.2159 23.5582 43.215
20 1 Ar 6.72386 15.1578 2.78571
21 1 Ar 43.6757 12.944 22.8201
22 1 Ar 1.61756 8.93151 29.2048
23 1 Ar 18.9507 19.448 42.9355
24 1 Ar 8.49795 26.8336 45.2462
25 1 Ar 9.28554 15.2038 37.0156
26 1 Ar 1.78024 36.9203 3.80644
27 1 Ar 2.55241 19.1593 21.5997
28 1 Ar 33.6484 33.4569 44.5152
29 1 Ar 24.156 4.26165 11.4151
30 1 Ar 8.40153 13.9938 29.477
31 1 Ar 12.494 6.71582 33.4711
32 1 Ar 16.4957 25.5297 31.2746
33 1 Ar 1.45192 33.8326 15.22
34 1 Ar 3.60492 20.2464 9.02445
35 1 Ar 3.40992 19.4113 41.3286
36 1 Ar 6.66562 22.3741 2.1306
37 1 Ar 38.5667 20.3142 9.77158
38 1 Ar 37.0096 17.8693 29.027
39 1 Ar 7.82498 35.3932 25.4328
40 1 Ar 6.21009 7.76315 2.71627
41 1 Ar 22.7278 36.7815 2.42237
42 1 Ar 2.56703 20.1993 16.6226
43 1 Ar 0.227027 31.7429 12.7456
44 1 Ar 33.4613 28.0796 18.8302
45 1 Ar 4.12665 30.0724 12.4388
46 1 Ar 8.17781 25.8778 41.6236
47 1 Ar 20.1898 30.1251 24.0554
48 1 Ar 4.29758 31.8048 42.5522
49 1 Ar 2.65441 17.2826 6.99798
50 1 Ar 9.48456 12.0019 40.4431
51 1 Ar 6.12946 21.4828 15.1459
52 1 Ar 5.34203 28.412 42.5304
53 1 Ar 13.6313 14.6778 7.06462
54 1 Ar 44.9104 43.0453 43.1784
55 1 Ar 8.59997 25.8213 34.1791
56 1 Ar 32.7235 34.6273 6.08296
57 1 Ar 26.2956 16.1678 35.9355
58 1 Ar 9.52527 1.6722 14.7637
59 1 Ar 44.7673 40.7271 18.4757
60 1 Ar 39.1845 8.6603 21.4405
61 1 Ar 42.3252 31.802 30.8462
62 1 Ar 2.84522 4.48023 20.9935
63 1 Ar 11.6992 21.599 37.4195
64 1 Ar 42.5725 43.4747 39.6996
65 1 Ar 31.4182 35.6243 17.0601
66 1 Ar 21.4899 30.4785 8.21533
67 1 Ar 34.1306 27.6732 30.4743
68 1 Ar 4.80339 41.3021 15.2082
69 1 Ar 19.8303 22.4749 37.189
70 1 Ar 22.6154 6.03474 23.962
71 1 Ar 39.1984 11.1384 15.6275
72 1 Ar 44.5664 4.36516 43.0312
73 1 Ar 3.68928 43.7691 11.4792
74 1 Ar 2.16161 5.77409 12.1587
75 1 Ar 3.78061 7.27831 15.0617
76 1 Ar 18.6064 41.5956 40.4774
77 1 Ar 8.86519 4.18884 27.9095
78 1 Ar 8.85584 43.3337 42.9554
79 1 Ar 22.3798 15.719 33.7891
80 1 Ar 17.8814 6.74934 39.5989
81 1 Ar 4.94752 43.457 44.5056
82 1 Ar 1.87318 14.56 4.32829
83 1 Ar 11.1275 15.5915 24.508
84 1 Ar 7.6843 12.332 21.3292
85 1 Ar 22.3366 40.4612 7.60175
86 1 Ar 8.69639 45.9 5.08297
87 1 Ar 17.1481 20.8456 8.64803
88 1 Ar 20.1736 3.72886 43.705
89 1 Ar 3.85062 12.7863 8.29816
90 1 Ar 16.2043 32.7035 11.5984
91 1 Ar 12.928 17.7928 9.90065
92 1 Ar 4.06738 30.214 18.2926
93 1 Ar 0.783086 36.6097 26.7696
94 1 Ar 11.4656 37.4615 36.4538
95 1 Ar 30.4668 4.16605 11.5876
96 1 Ar 32.6062 11.391 38.7579
97 1 Ar 27.868 18.7421 10.8996
98 1 Ar 44.6443 29.3124 10.552
99 1 Ar 43.9537 13.7552 13.182
100 1 Ar 21.102 23.1193 26.6792
101 1 Ar 30.7186 2.47567 39.4539
102 1 Ar 13.3708 32.8976 18.6608
103 1 Ar 22.2774 19.7961 20.9788
104 1 Ar 12.5393 20.6686 6.67531
105 1 Ar 2.69009 45.0777 16.7225
106 1 Ar 0.507208 36.3956 7.69234
107 1 Ar 41.272 0.857864 19.8731
108 1 Ar 40.0437 9.03797 3.55478
109 1 Ar 32.9471 14.7294 22.2038
110 1 Ar 26.6103 25.8017 25.9569
111 1 Ar 6.74339 30.9401 37.6001
112 1 Ar 44.2481 46.1005 32.7218
113 1 Ar 12.4595 44.07 0.693401
114 1 Ar 7.30072 32.7366 34.3248
115 1 Ar 35.0295 8.16827 31.4911
116 1 Ar 9.71978 15.2549 4.51497
117 1 Ar 4.40942 30.131 27.9499
118 1 Ar 6.75228 30.6624 31.0977
119 1 Ar 4.46593 36.6782 32.3599
120 1 Ar 46.1385 33.6157 5.36631
121 1 Ar 6.40145 27.5476 6.32758
122 1 Ar 32.0593 11.2315 29.3826
123 1 Ar 4.16814 39.8291 1.60026
124 1 Ar 15.8127 1.83486 8.99629
125 1 Ar 35.6643 36.6922 18.1944
126 1 Ar 5.71018 34.5071 37.0064
127 1 Ar 45.9026 16.1836 16.2903
128 1 Ar 13.8433 5.51926 15.7851
129 1 Ar 9.58177 12.0535 14.607
130 1 Ar 29.9321 10.1097 5.36166
131 1 Ar 13.9567 12.3714 17.8738
132 1 Ar 12.7298 1.57945 21.6189
133 1 Ar 8.75395 0.513005 24.5614
134 1 Ar 21.0875 37.226 18.5944
135 1 Ar 28.2143 4.6676 3.6757
136 1 Ar 11.429 6.29648 1.30666
137 1 Ar 13.262 2.17245 0.298921
138 1 Ar 6.12698 1.10667 15.8776
139 1 Ar 36.9531 25.365 34.8306
140 1 Ar 9.39405 7.44498 29.8187
141 1 Ar 5.37198 5.69554 23.7811
142 1 Ar 5.34892 8.12429 30.7438
143 1 Ar 9.72422 7.61141 38.8818
144 1 Ar 6.8551 10.6407 0.647626
145 1 Ar 5.86717 15.03 10.0035
146 1 Ar 7.67408 4.82468 13.1973
147 1 Ar 44.8827 6.30434 26.3881
148 1 Ar 8.54203 8.13307 21.1044
149 1 Ar 8.70074 12.0717 26.3457
150 1 Ar 34.7074 32.5894 31.2421
151 1 Ar 4.36352 8.66961 38.8686
152 1 Ar 30.4331 20.4021 44.4899
153 1 Ar 12.6675 28.5307 44.4109
154 1 Ar 18.707 11.1276 17.7304
155 1 Ar 10.7951 8.59015 15.5399
156 1 Ar 23.1262 6.98731 17.8479
157 1 Ar 7.01732 15.7573 24.126
158 1 Ar 24.5944 19.6527 39.5228
159 1 Ar 9.52385 24.7503 30.3175
160 1 Ar 11.3806 16.3773 42.8864
161 1 Ar 10.0502 22.5357 4.67666
162 1 Ar 20.3463 15.6824 19.9555
163 1 Ar 18.6226 24.797 17.0546
164 1 Ar 8.01134 16.2274 20.6708
165 1 Ar 11.2007 21.9895 23.1272
166 1 Ar 13.7264 10.0131 20.3692
167 1 Ar 34.8801 31.7441 2.94246
168 1 Ar 17.6587 27.004 25.7754
169 1 Ar 8.77735 10.4242 33.2957
170 1 Ar 26.3745 7.93407 38.7976
171 1 Ar 31.802 18.3654 30.0061
172 1 Ar 37.9962 19.7107 1.21882
173 1 Ar 39.1778 39.5599 23.4747
174 1 Ar 25.7096 38.1212 8.68754
175 1 Ar 34.2591 25.0625 44.0211
176 1 Ar 1.42171 20.6528 3.48513
177 1 Ar 8.64918 30.0545 1.39243
178 1 Ar 6.96222 45.8597 1.54387
179 1 Ar 17.3503 30.4344 21.2626
180 1 Ar 26.8251 26.0429 30.1668
181 1 Ar 14.3239 22.9341 28.2673
182 1 Ar 8.54723 8.14817 42.6147
183 1 Ar 10.0269 33.1569 36.7715
184 1 Ar 27.1465 7.75348 0.0152629
185 1 Ar 24.0172 36.1471 5.78854
186 1 Ar 7.03333 36.6271 10.6662
187 1 Ar 5.10507 25.0898 44.1892
188 1 Ar 27.4157 40.7382 19.5997
189 1 Ar 3.09293 5.26454 27.0261
190 1 Ar 7.77984 39.051 4.35787
191 1 Ar 7.64205 36.5275 33.739
192 1 Ar 34.4651 4.08583 12.8084
193 1 Ar 28.949 13.9212 38.4521
194 1 Ar 29.9494 29.5923 31.7688
195 1 Ar 33.5506 5.38919 18.5713
196 1 Ar 11.7856 44.7598 23.5182
197 1 Ar 16.0477 16.4427 34.5909
198 1 Ar 13.3841 7.79031 4.92363
199 1 Ar 1.18061 11.6338 42.0033
200 1 Ar 32.1624 40.9103 36.383
201 1 Ar 13.6651 3.2993 3.61826
202 1 Ar 23.4041 41.8942 19.6169
203 1 Ar 8.89167 5.41311 18.4877
204 1 Ar 16.357 8.9087 13.6852
205 1 Ar 24.4919 43.1185 13.784
206 1 Ar 11.2538 1.35157 27.1342
207 1 Ar 1.68278 39.1706 30.314
208 1 Ar 11.7308 13.67 45.5245
209 1 Ar 40.1969 23.0894 0.955624
210 1 Ar 18.7043 12.19 13.4589
211 1 Ar 16.1464 15.5475 10.9541
212 1 Ar 30.1524 43.648 35.4563
213 1 Ar 17.178 10.1619 21.8226
214 1 Ar 16.7054 13.0602 20.0266
215 1 Ar 7.28236 39.6569 22.3362
216 1 Ar 12.9486 10.921 1.2488
217 1 Ar 25.7747 8.27911 29.2279
218 1 Ar 24.4531 21.0547 6.72926
219 1 Ar 15.2527 17.1236 14.4863
220 1 Ar 11.7539 9.49378 43.9903
221 1 Ar 26.8137 35.0885 37.7503
222 1 Ar 4.97053 11.1793 23.4075
223 1 Ar 2.63812 10.5324 2.39384
224 1 Ar 18.0771 23.3449 43.1956
225 1 Ar 12.9736 17.8035 4.12033
226 1 Ar 41.1016 2.24273 26.3991
227 1 Ar 23.2453 35.7011 24.4445
228 1 Ar 43.248 30.5375 34.7918
229 1 Ar 9.31825 19.7758 13.7271
230 1 Ar 22.1322 25.3092 30.4538
231 1 Ar 8.68148 23.0975 44.8283
232 1 Ar 10.836 17.1885 6.89095
233 1 Ar 18.1471 21.0662 1.99318
234 1 Ar 7.04145 17.6832 31.7423
235 1 Ar 15.2228 27.3584 10.1895
236 1 Ar 36.9959 0.177731 37.7842
237 1 Ar 36.557 9.1682 5.89365
238 1 Ar 14.7621 31.9211 30.6854
239 1 Ar 12.2773 26.0326 35.8575
240 1 Ar 27.9449 29.1579 23.6787
241 1 Ar 7.61717 24.2861 24.448
242 1 Ar 29.1358 0.561589 16.5697
243 1 Ar 16.1545 21.1479 25.7181
244 1 Ar 0.23479 39.1813 10.1026
245 1 Ar 15.2525 16.2074 0.600868
246 1 Ar 34.6628 8.08098 27.4634
247 1 Ar 17.1128 0.747855 40.7779
248 1 Ar 9.18089 37.207 17.6926
249 1 Ar 2.32145 40.4991 12.2555
250 1 Ar 38.8577 33.314 13.1521
251 1 Ar 20.0735 21.4214 12.7508
252 1 Ar 19.4702 28.9295 18.9619
253 1 Ar 26.3066 45.1841 24.3807
254 1 Ar 23.529 18.4394 43.1481
255 1 Ar 35.6607 2.36532 34.8733
256 1 Ar 23.6824 43.422 10.136
257 1 Ar 8.28275 14.4139 45.5593
258 1 Ar 29.2488 26.7851 40.9953
259 1 Ar 37.765 5.31448 28.2626
260 1 Ar 30.9623 38.4348 13.6412
261 1 Ar 15.9666 45.3745 23.0933
262 1 Ar 2.34047 8.90306 25.3364
263 1 Ar 25.4732 5.21138 26.857
264 1 Ar 14.8309 35.4694 1.39931
265 1 Ar 9.40818 7.20406 5.14488
266 1 Ar 19.9822 7.98963 21.2197
267 1 Ar 31.9727 7.68034 15.4666
268 1 Ar 16.3978 37.7713 26.7742
269 1 Ar 39.4928 38.7653 18.9934
270 1 Ar 43.6479 31.466 17.1079
271 1 Ar 3.71178 24.7492 24.4316
272 1 Ar 30.4931 0.910068 7.21432
273 1 Ar 23.9294 11.2572 1.43342
274 1 Ar 19.6789 8.0428 10.3332
275 1 Ar 30.2992 40.577 23.6913
276 1 Ar 18.5546 42.1064 5.81466
277 1 Ar 21.0171 11.5034 37.1608
278 1 Ar 24.7987 17.5027 8.28003
279 1 Ar 6.57639 27.7917 23.9808
280 1 Ar 40.4699 39.1628 32.7604
281 1 Ar 20.955 17.314 7.20451
282 1 Ar 21.4633 41.6751 16.0979
283 1 Ar 23.2488 19.0325 17.6057
284 1 Ar 18.0126 25.966 34.9199
285 1 Ar 13.438 10.4561 33.0108
286 1 Ar 19.2068 34.2727 9.99865
287 1 Ar 20.2397 15.6385 36.531
288 1 Ar 7.72012 41.0149 18.6275
289 1 Ar 18.1231 19.3104 34.9939
290 1 Ar 11.056 26.1102 7.95536
291 1 Ar 18.6762 18.3251 13.7782
292 1 Ar 38.4757 28.235 36.4057
293 1 Ar 5.79466 34.7041 28.3433
294 1 Ar 22.0729 19.0535 36.1434
295 1 Ar 21.4904 19.6887 40.0559
296 1 Ar 24.0826 31.8859 14.2936
297 1 Ar 13.488 24.0089 5.1766
298 1 Ar 17.7035 29.8941 9.85489
299 1 Ar 23.3916 36.8675 12.4743
300 1 Ar 44.6812 23.1333 42.7409
301 1 Ar 36.2642 39.8961 20.5229
302 1 Ar 35.4638 12.8648 12.4887
303 1 Ar 6.71504 10.8136 9.39511
304 1 Ar 21.8725 42.9169 22.5896
305 1 Ar 14.4194 11.8312 14.5341
306 1 Ar 23.1074 29.1556 42.2507
307 1 Ar 24.8942 8.58847 10.0042
308 1 Ar 30.001 39.6341 32.6524
309 1 Ar 1.77874 2.24481 44.6293
310 1 Ar 25.5768 35.3694 45.2374
311 1 Ar 17.7934 13.6377 2.14948
312 1 Ar 39.6258 29.6661 1.14468
313 1 Ar 16.9505 24.7583 22.4352
314 1 Ar 11.2263 2.70923 18.3954
315 1 Ar 45.7956 27.1111 16.7583
316 1 Ar 17.0474 14.4077 16.4345
317 1 Ar 16.9993 32.4992 25.0058
318 1 Ar 19.6537 36.4544 26.2232
319 1 Ar 32.4024 30.6249 39.8555
320 1 Ar 10.2641 35.791 4.09739
321 1 Ar 40.1062 17.3607 23.9933
322 1 Ar 19.6227 13.483 26.4006
323 1 Ar 28.8736 5.15513 19.5219
324 1 Ar 29.103 36.8402 11.1046
325 1 Ar 23.4898 3.34296 20.1405
326 1 Ar 19.9021 27.226 4.95805
327 1 Ar 18.2498 17.8466 0.105849
328 1 Ar 29.5268 29.1065 19.6323
329 1 Ar 36.5353 37.4598 3.26815
330 1 Ar 5.92234 44.7909 23.5278
331 1 Ar 21.8065 10.2076 12.2069
332 1 Ar 24.26 0.826219 12.5088
333 1 Ar 33.22 40.9235 30.7596
334 1 Ar 30.8869 5.40201 35.9543
335 1 Ar 18.996 18.2233 25.6911
336 1 Ar 12.0833 6.10745 21.2523
337 1 Ar 33.0222 18.6684 42.6413
338 1 Ar 36.0186 9.73679 16.458
339 1 Ar 28.2694 7.46749 11.4585
340 1 Ar 25.7868 31.4052 41.9154
341 1 Ar 24.6413 13.278 20.6641
342 1 Ar 21.0527 14.4306 16.6745
343 1 Ar 23.1599 5.74952 40.5624
344 1 Ar 4.91356 37.6911 40.9034
345 1 Ar 19.513 13.624 9.75207
346 1 Ar 33.1231 22.8455 20.153
347 1 Ar 38.7563 42.9031 36.9502
348 1 Ar 26.4243 19.7954 21.0196
349 1 Ar 23.408 15.9179 27.2094
350 1 Ar 13.6907 8.03756 23.7767
351 1 Ar 19.8306 42.2333 0.429538
352 1 Ar 28.2982 23.4062 39.3821
353 1 Ar 27.1926 16.4037 30.164
354 1 Ar 29.9552 26.604 9.7894
355 1 Ar 43.2353 14.8622 18.6113
356 1 Ar 27.1531 22.228 16.9974
357 1 Ar 28.8042 16.1459 22.2241
358 1 Ar 25.4728 12.1171 28.0098
359 1 Ar 21.5121 12.0809 29.3501
360 1 Ar 41.7076 32.7026 45.6477
361 1 Ar 25.8908 34.8102 13.0626
362 1 Ar 11.3281 15.7162 17.6595
363 1 Ar 33.1048 18.6554 13.9479
364 1 Ar 33.9994 2.94452 30.3807
365 1 Ar 22.8955 23.6993 15.7017
366 1 Ar 28.5156 18.1549 39.7925
367 1 Ar 31.7377 21.7558 4.02397
368 1 Ar 23.2829 28.5052 3.31559
369 1 Ar 23.9212 15.2925 38.2489
370 1 Ar 35.7541 4.20084 39.5279
371 1 Ar 27.692 2.66675 33.4777
372 1 Ar 34.616 38.5773 28.6265
373 1 Ar 26.5106 33.7432 32.8858
374 1 Ar 35.0601 35.0882 36.4434
375 1 Ar 26.927 38.9076 0.047919
376 1 Ar 19.4211 34.9504 0.57464
377 1 Ar 27.1724 36.6151 2.87495
378 1 Ar 32.2157 42.2716 11.9768
379 1 Ar 27.8204 39.4131 5.9256
380 1 Ar 21.7017 17.8567 10.6195
381 1 Ar 22.0754 26.4194 13.2962
382 1 Ar 12.271 13.9191 27.6686
383 1 Ar 24.3623 6.67789 14.197
384 1 Ar 35.5829 12.5529 8.31813
385 1 Ar 33.4095 45.4821 36.2339
386 1 Ar 27.0258 2.52711 13.6557
387 1 Ar 30.3435 39.019 27.9219
388 1 Ar 23.6567 32.749 4.6542
389 1 Ar 30.4086 2.51501 21.8297
390 1 Ar 21.2996 22.5098 33.0128
391 1 Ar 16.2277 40.0634 42.9056
392 1 Ar 19.4604 7.33973 15.1269
393 1 Ar 38.8578 29.2528 5.17395
394 1 Ar 22.8559 12.1053 23.6529
395 1 Ar 41.2878 6.51381 23.643
396 1 Ar 40.8297 14.8537 15.4244
397 1 Ar 38.1016 31.3985 19.8277
398 1 Ar 23.7641 6.53361 2.17475
399 1 Ar 22.4445 43.8626 6.14053
400 1 Ar 30.9004 44.7265 32.0313
401 1 Ar 38.3074 9.11365 24.742
402 1 Ar 2.46358 33.8816 21.2397
403 1 Ar 32.1416 42.2687 26.9188
404 1 Ar 25.1762 20.4336 29.7796
405 1 Ar 11.5717 21.615 16.4177
406 1 Ar 15.6868 5.63082 1.55449
407 1 Ar 34.7769 14.9471 40.6013
408 1 Ar 16.8408 14.2036 43.8104
409 1 Ar 24.2421 22.6171 1.90643
410 1 Ar 26.6621 11.2827 17.0239
411 1 Ar 30.4905 21.9089 7.49443
412 1 Ar 38.8661 14.328 20.2392
413 1 Ar 29.2835 13.9961 28.1933
414 1 Ar 10.4359 45.2909 17.3787
415 1 Ar 9.35903 22.7957 8.3036
416 1 Ar 38.1209 32.8838 44.0254
417 1 Ar 32.8774 18.8698 0.944636
418 1 Ar 34.9937 17.4065 17.5668
419 1 Ar 42.168 27.1865 34.9418
420 1 Ar 39.3948 30.7048 33.7942
421 1 Ar 40.7669 16.261 29.3352
422 1 Ar 33.5889 25.7372 40.3204
423 1 Ar 12.6028 0.150805 3.20382
424 1 Ar 5.15077 39.5207 6.36845
425 1 Ar 34.1257 25.314 2.02052
426 1 Ar 1.98862 6.20855 4.92236
427 1 Ar 38.4551 12.0859 1.71848
428 1 Ar 31.7026 11.3941 0.852512
429 1 Ar 0.200214 20.097 43.4
430 1 Ar 32.3445 10.8006 22.9257
431 1 Ar 39.0994 26.0233 32.326
432 1 Ar 30.8825 31.4519 43.3263
433 1 Ar 31.277 30.8619 4.18814
434 1 Ar 11.3945 20.2631 26.2369
435 1 Ar 18.0539 27.3733 12.7758
436 1 Ar 15.8454 31.5394 15.8168
437 1 Ar 38.2401 36.4856 29.3148
438 1 Ar 29.5316 32.7249 35.3283
439 1 Ar 7.1258 8.25558 12.7097
440 1 Ar 31.593 33.0796 1.08399
441 1 Ar 0.288408 2.23775 17.7621
442 1 Ar 31.5299 34.2572 11.4213
443 1 Ar 35.9369 10.5874 45.8187
444 1 Ar 38.0402 30.131 29.6895