ITEM: TIMESTEP
-1
ITEM: NUMBER OF ATOMS
500
ITEM: BOX BOUNDS pp pp pp
0 58.1392
0 58.1392
0 58.1392
ITEM: ATOMS id type element xu yu zu
0 1 Ar 0 0 0
1 1 Ar 0 0 6.45991
2 1 Ar 0 0 12.9198
3 1 Ar 0 0 19.3797
4 1 Ar 0 0 25.8396
5 1 Ar 0 0 32.2995
6 1 Ar 0 0 38.7595
7 1 Ar 0 0 45.2194
8 1 Ar 0 6.45991 0
9 1 Ar 0 6.45991 6.45991
10 1 Ar 0 6.45991 12.9198
11 1 Ar 0 6.45991 19.3797
12 1 Ar 0 6.45991 25.8396
13 1 Ar 0 6.45991 32.2995
14 1 Ar 0 6.45991 38.7595
15 1 Ar 0 6.45991 45.2194
16 1 Ar 0 12.9198 0
17 1 Ar 0 12.9198 6.45991
18 1 Ar 0 12.9198 12.9198
19 1 Ar 0 12.9198 19.3797
20 1 Ar 0 12.9198 25.8396
21 1 Ar 0 12.9198 32.2995
22 1 Ar 0 12.9198 38.7595
23 1 Ar 0 12.9198 45.2194
24 1 Ar 0 19.3797 0
25 1 Ar 0 19.3797 6.45991
26 1 Ar 0 19.3797 12.9198
27 1 Ar 0 19.3797 19.3797
28 1 Ar 0 19.3797 25.8396
29 1 Ar 0 19.3797 32.2995
30 1 Ar 0 19.3797 38.7595
31 1 Ar 0 19.3797 45.2194
32 1 Ar 0 25.8396 0
33 1 Ar 0 25.8396 6.45991
34 1 Ar 0 25.8396 12.9198
35 1 Ar 0 25.8396 19.3797
36 1 Ar 0 25.8396 25.8396
37 1 Ar 0 25.8396 32.2995
38 1 Ar 0 25.8396 38.7595
39 1 Ar 0 25.8396 45.2194
40 1 Ar 0 32.2995 0
41 1 Ar 0 32.2995 6.45991
42 1 Ar 0 32.2995 12.9198
43 1 Ar 0 32.2995 19.3797
44 1 Ar 0 32.2995 25.8396
45 1 Ar 0 32.2995 32.2995
46 1 Ar 0 32.2995 38.7595
47 1 Ar 0 32.2995 45.2194
48 1 Ar 0 38.7595 0
49 1 Ar 0 38.7595 6.45991
50 1 Ar 0 38.7595 12.9198
51 1 Ar 0 38.7595 19.3797
52 1 Ar 0 38.7595 25.8396
53 1 Ar 0 38.7595 32.2995
54 1 Ar 0 38.7595 38.7595
55 1 Ar 0 38.7595 45.2194
56 1 Ar 0 45.2194 0
57 1 Ar 0 45.2194 6.45991
58 1 Ar 0 45.2194 12.9198
59 1 Ar 0 45.2194 19.3797
60 1 Ar 0 45.2194 25.8396
61 1 Ar 0 45.2194 32.2995
62 1 Ar 0 45.2194 38.7595
63 1 Ar 0 45.2194 45.2194
64 1 Ar 6.45991 0 0
65 1 Ar 6.45991 0 6.45991
66 1 Ar 6.45991 0 12.9198
67 1 Ar 6.45991 0 19.3797
68 1 Ar 6.45991 0 25.8396
69 1 Ar 6.45991 0 32.2995
70 1 Ar 6.45991 0 38.7595
71 1 Ar 6.45991 0 45.2194
72 1 Ar 6.45991 6.45991 0
73 1 Ar 6.45991 6.45991 6.45991
74 1 Ar 6.45991 6.45991 12.9198
75 1 Ar 6.45991 6.45991 19.3797
76 1 Ar 6.45991 6.45991 25.8396
77 1 Ar 6.45991 6.45991 32.2995
78 1 Ar 6.45991 6.45991 38.7595
79 1 Ar 6.45991 6.45991 45.2194
80 1 Ar 6.45991 12.9198 0
81 1 Ar 6.45991 12.9198 6.45991
82 1 Ar 6.45991 12.9198 12.9198
83 1 Ar 6.45991 12.9198 19.3797
84 1 Ar 6.45991 12.9198 25.8396
85 1 Ar 6.45991 12.9198 32.2995
86 1 Ar 6.45991 12.9198 38.7595
87 1 Ar 6.45991 12.9198 45.2194
88 1 Ar 6.45991 19.3797 0
89 1 Ar 6.45991 19.3797 6.45991
90 1 Ar 6.45991 19.3797 12.9198
91 1 Ar 6.45991 19.3797 19.3797
92 1 Ar 6.45991 19.3797 25.8396
93 1 Ar 6.45991 19.3797 32.2995
94 1 Ar 6.45991 19.3797 38.7595
95 1 Ar 6.45991 19.3797 45.2194
96 1 Ar 6.45991 25.8396 0
97 1 Ar 6.45991 25.8396 6.45991
98 1 Ar 6.45991 25.8396 12.9198
99 1 Ar 6.45991 25.8396 19.3797
100 1 Ar 6.45991 25.8396 25.8396
101 1 Ar 6.45991 25.8396 32.2995
102 1 Ar 6.45991 25.8396 38.7595
103 1 Ar 6.45991 25.8396 45.2194
104 1 Ar 6.45991 32.2995 0
105 1 Ar 6.45991 32.2995 6.45991
106 1 Ar 6.45991 32.2995 12.9198
107 1 Ar 6.45991 32.2995 19.3797
108 1 Ar 6.45991 32.2995 25.8396
109 1 Ar 6.45991 32.2995 32.2995
110 1 Ar 6.45991 32.2995 38.7595
111 1 Ar 6.45991 32.2995 45.2194
112 1 Ar 6.45991 38.7595 0
113 1 Ar 6.45991 38.7595 6.45991
114 1 Ar 6.45991 38.7595 12.9198
115 1 Ar 6.45991 38.7595 19.3797
116 1 Ar 6.45991 38.7595 25.8396
117 1 Ar 6.45991 38.7595 32.2995
118 1 Ar 6.45991 38.7595 38.7595
119 1 Ar 6.45991 38.7595 45.2194
120 1 Ar 6.45991 45.2194 0
121 1 Ar 6.45991 45.2194 6.45991
122 1 Ar 6.45991 45.2194 12.9198
123 1 Ar 6.45991 45.2194 19.3797
124 1 Ar 6.45991 45.2194 25.8396
125 1 Ar 6.45991 45.2194 32.2995
126 1 Ar 6.45991 45.2194 38.7595
127 1 Ar 6.45991 45.2194 45.2194
128 1 Ar 12.9198 0 0
129 1 Ar 12.9198 0 6.45991
130 1 Ar 12.9198 0 12.9198
131 1 Ar 12.9198 0 19.3797
132 1 Ar 12.9198 0 25.8396
133 1 Ar 12.9198 0 32.2995
134 1 Ar 12.9198 0 38.7595
135 1 Ar 12.9198 0 45.2194
136 1 Ar 12.9198 6.45991 0
137 1 Ar 12.9198 6.45991 6.45991
138 1 Ar 12.9198 6.45991 12.9198
139 1 Ar 12.9198 6.45991 19.3797
140 1 Ar 12.9198 6.45991 25.8396
141 1 Ar 12.9198 6.45991 32.2995
142 1 Ar 12.9198 6.45991 38.7595
143 1 Ar 12.9198 6.45991 45.2194
144 1 Ar 12.9198 12.9198 0
145 1 Ar 12.9198 12.9198 6.45991
146 1 Ar 12.9198 12.9198 12.9198
147 1 Ar 12.9198 12.9198 19.3797
148 1 Ar 12.9198 12.9198 25.8396
149 1 Ar 12.9198 12.9198 32.2995
150 1 Ar 12.9198 12.9198 38.7595
151 1 Ar 12.9198 12.9198 45.2194
152 1 Ar 12.9198 19.3797 0
153 1 Ar 12.9198 19.3797 6.45991
154 1 Ar 12.9198 19.3797 12.9198
155 1 Ar 12.9198 19.3797 19.3797
156 1 Ar 12.9198 19.3797 25.8396
157 1 Ar 12.9198 19.3797 32.2995
158 1 Ar 12.9198 19.3797 38.7595
159 1 Ar 12.9198 19.3797 45.2194
160 1 Ar 12.9198 25.8396 0
161 1 Ar 12.9198 25.8396 6.45991
162 1 Ar 12.9198 25.8396 12.9198
163 1 Ar 12.9198 25.8396 19.3797
164 1 Ar 12.9198 25.8396 25.8396
165 1 Ar 12.9198 25.8396 32.2995
166 1 Ar 12.9198 25.8396 38.7595
167 1 Ar 12.9198 25.8396 45.2194
168 1 Ar 12.9198 32.2995 0
169 1 Ar 12.9198 32.2995 6.45991
170 1 Ar 12.9198 32.2995 12.9198
171 1 Ar 12.9198 32.2995 19.3797
172 1 Ar 12.9198 32.2995 25.8396
173 1 Ar 12.9198 32.2995 32.2995
174 1 Ar 12.9198 32.2995 38.7595
175 1 Ar 12.9198 32.2995 45.2194
176 1 Ar 12.9198 38.7595 0
177 1 Ar 12.9198 38.7595 6.45991
178 1 Ar 12.9198 38.7595 12.9198
179 1 Ar 12.9198 38.7595 19.3797
180 1 Ar 12.9198 38.7595 25.8396
181 1 Ar 12.9198 38.7595 32.2995
182 1 Ar 12.9198 38.7595 38.7595
183 1 Ar 12.9198 38.7595 45.2194
184 1 Ar 12.9198 45.2194 0
185 1 Ar 12.9198 45.2194 6.45991
186 1 Ar 12.9198 45.2194 12.9198
187 1 Ar 12.9198 45.2194 19.3797
188 1 Ar 12.9198 45.2194 25.8396
189 1 Ar 12.9198 45.2194 32.2995
190 1 Ar 12.9198 45.2194 38.7595
191 1 Ar 12.9198 45.2194 45.2194
192 1 Ar 19.3797 0 0
193 1 Ar 19.3797 0 6.45991
194 1 Ar 19.3797 0 12.9198
195 1 Ar 19.3797 0 19.3797
196 1 Ar 19.3797 0 25.8396
197 1 Ar 19.3797 0 32.2995
198 1 Ar 19.3797 0 38.7595
199 1 Ar 19.3797 0 45.2194
200 1 Ar 19.3797 6.45991 0
201 1 Ar 19.3797 6.45991 6.45991
202 1 Ar 19.3797 6.45991 12.9198
203 1 Ar 19.3797 6.45991 19.3797
204 1 Ar 19.3797 6.45991 25.8396
205 1 Ar 19.3797 6.45991 32.2995
206 1 Ar 19.3797 6.45991 38.7595
207 1 Ar 19.3797 6.45991 45.2194
208 1 Ar 19.3797 12.9198 0
209 1 Ar 19.3797 12.9198 6.45991
210 1 Ar 19.3797 12.9198 12.9198
211 1 Ar 19.3797 12.9198 19.3797
212 1 Ar 19.3797 12.9198 25.8396
213 1 Ar 19.3797 12.9198 32.2995
214 1 Ar 19.3797 12.9198 38.7595
215 1 Ar 19.3797 12.9198 45.2194
216 1 Ar 19.3797 19.3797 0
217 1 Ar 19.3797 19.3797 6.45991
218 1 Ar 19.3797 19.3797 12.9198
219 1 Ar 19.3797 19.3797 19.3797
220 1 Ar 19.3797 19.3797 25.8396
221 1 Ar 19.3797 19.3797 32.2995
222 1 Ar 19.3797 19.3797 38.7595
223 1 Ar 19.3797 19.3797 45.2194
224 1 Ar 19.3797 25.8396 0
225 1 Ar 19.3797 25.8396 6.45991
226 1 Ar 19.3797 25.8396 12.9198
227 1 Ar 19.3797 25.8396 19.3797
228 1 Ar 19.3797 25.8396 25.8396
229 1 Ar 19.3797 25.8396 32.2995
230 1 Ar 19.3797 25.8396 38.7595
231 1 Ar 19.3797 25.8396 45.2194
232 1 Ar 19.3797 32.2995 0
233 1 Ar 19.3797 32.2995 6.45991
234 1 Ar 19.3797 32.2995 12.9198
235 1 Ar 19.3797 32.2995 19.3797
236 1 Ar 19.3797 32.2995 25.8396
237 1 Ar 19.3797 32.2995 32.2995
238 1 Ar 19.3797 32.2995 38.7595
239 1 Ar 19.3797 32.2995 45.2194
240 1 Ar 19.3797 38.7595 0
241 1 Ar 19.3797 38.7595 6.45991
242 1 Ar 19.3797 38.7595 12.9198
243 1 Ar 19.3797 38.7595 19.3797
244 1 Ar 19.3797 38.7595 25.8396
245 1 Ar 19.3797 38.7595 32.2995
246 1 Ar 19.3797 38.7595 38.7595
247 1 Ar 19.3797 38.7595 45.2194
248 1 Ar 19.3797 45.2194 0
249 1 Ar 19.3797 45.2194 6.45991
250 1 Ar 19.3797 45.2194 12.9198
251 1 Ar 19.3797 45.2194 19.3797
252 1 Ar 19.3797 45.2194 25.8396
253 1 Ar 19.3797 45.2194 32.2995
254 1 Ar 19.3797 45.2194 38.7595
255 1 Ar 19.3797 45.2194 45.2194
256 1 Ar 25.8396 0 0
257 1 Ar 25.8396 0 6.45991
258 1 Ar 25.8396 0 12.9198
259 1 Ar 25.8396 0 19.3797
260 1 Ar 25.8396 0 25.8396
261 1 Ar 25.8396 0 32.2995
262 1 Ar 25.8396 0 38.7595
263 1 Ar 25.8396 0 45.2194
264 1 Ar 25.8396 6.45991 0
265 1 Ar 25.8396 6.45991 6.45991
266 1 Ar 25.8396 6.45991 12.9198
267 1 Ar 25.8396 6.45991 19.3797
268 1 Ar 25.8396 6.45991 25.8396
269 1 Ar 25.8396 6.45991 32.2995
270 1 Ar 25.8396 6.45991 38.7595
271 1 Ar 25.8396 6.45991 45.2194
272 1 Ar 25.8396 12.9198 0
273 1 Ar 25.8396 12.9198 6.45991
274 1 Ar 25.8396 12.9198 12.9198
275 1 Ar 25.8396 12.9198 19.3797
276 1 Ar 25.8396 12.9198 25.8396
277 1 Ar 25.8396 12.9198 32.2995
278 1 Ar 25.8396 12.9198 38.7595
279 1 Ar 25.8396 12.9198 45.2194
280 1 Ar 25.8396 19.3797 0
281 1 Ar 25.8396 19.3797 6.45991
282 1 Ar 25.8396 19.3797 12.9198
283 1 Ar 25.8396 19.3797 19.3797
284 1 Ar 25.8396 19.3797 25.8396
285 1 Ar 25.8396 19.3797 32.2995
286 1 Ar 25.8396 19.3797 38.7595
287 1 Ar 25.8396 19.3797 45.2194
288 1 Ar 25.8396 25.8396 0
289 1 Ar 25.8396 25.8396 6.45991
290 1 Ar 25.8396 25.8396 12.9198
291 1 Ar 25.8396 25.8396 19.3797
292 1 Ar 25.8396 25.8396 25.8396
293 1 Ar 25.8396 25.8396 32.2995
294 1 Ar 25.8396 25.8396 38.7595
295 1 Ar 25.8396 25.8396 45.2194
296 1 Ar 25.8396 32.2995 0
297 1 Ar 25.8396 32.2995 6.45991
298 1 Ar 25.8396 32.2995 12.9198
299 1 Ar 25.8396 32.2995 19.3797
300 1 Ar 25.8396 32.2995 25.8396
301 1 Ar 25.8396 32.2995 32.2995
302 1 Ar 25.8396 32.2995 38.7595
303 1 Ar 25.8396 32.2995 45.2194
304 1 Ar 25.8396 38.7595 0
305 1 Ar 25.8396 38.7595 6.45991
306 1 Ar 25.8396 38.7595 12.9198
307 1 Ar 25.8396 38.7595 19.3797
308 1 Ar 25.8396 38.7595 25.8396
309 1 Ar 25.8396 38.7595 32.2995
310 1 Ar 25.8396 38.7595 38.7595
311 1 Ar 25.8396 38.7595 45.2194
312 1 Ar 25.8396 45.2194 0
313 1 Ar 25.8396 45.2194 6.45991
314 1 Ar 25.8396 45.2194 12.9198
315 1 Ar 25.8396 45.2194 19.3797
316 1 Ar 25.8396 45.2194 25.8396
317 1 Ar 25.8396 45.2194 32.2995
318 1 Ar 25.8396 45.2194 38.7595
319 1 Ar 25.8396 45.2194 45.2194
320 1 Ar 32.2995 0 0
321 1 Ar 32.2995 0 6.45991
322 1 Ar 32.2995 0 12.9198
323 1 Ar 32.2995 0 19.3797
324 1 Ar 32.2995 0 25.8396
325 1 Ar 32.2995 0 32.2995
326 1 Ar 32.2995 0 38.7595
327 1 Ar 32.2995 0 45.2194
328 1 Ar 32.2995 6.45991 0
329 1 Ar 32.2995 6.45991 6.45991
330 1 Ar 32.2995 6.45991 12.9198
331 1 Ar 32.2995 6.45991 19.3797
332 1 Ar 32.2995 6.45991 25.8396
333 1 Ar 32.2995 6.45991 32.2995
334 1 Ar 32.2995 6.45991 38.7595
335 1 Ar 32.2995 6.45991 45.2194
336 1 Ar 32.2995 12.9198 0
337 1 Ar 32.2995 12.9198 6.45991
338 1 Ar 32.2995 12.9198 12.9198
339 1 Ar 32.2995 12.9198 19.3797
340 1 Ar 32.2995 12.9198 25.8396
341 1 Ar 32.2995 12.9198 32.2995
342 1 Ar 32.2995 12.9198 38.7595
343 1 Ar 32.2995 12.9198 45.2194
344 1 Ar 32.2995 19.3797 0
345 1 Ar 32.2995 19.3797 6.45991
346 1 Ar 32.2995 19.3797 12.9198
347 1 Ar 32.2995 19.3797 19.3797
348 1 Ar 32.2995 19.3797 25.8396
349 1 Ar 32.2995 19.3797 32.2995
350 1 Ar 32.2995 19.3797 38.7595
351 1 Ar 32.2995 19.3797 45.2194
352 1 Ar 32.2995 25.8396 0
353 1 Ar 32.2995 25.8396 6.45991
354 1 Ar 32.2995 25.8396 12.9198
355 1 Ar 32.2995 25.8396 19.3797
356 1 Ar 32.2995 25.8396 25.8396
357 1 Ar 32.2995 25.8396 32.2995
358 1 Ar 32.2995 25.8396 38.7595
359 1 Ar 32.2995 25.8396 45.2194
360 1 Ar 32.2995 32.2995 0
361 1 Ar 32.2995 32.2995 6.45991
362 1 Ar 32.2995 32.2995 12.9198
363 1 Ar 32.2995 32.2995 19.3797
364 1 Ar 32.2995 32.2995 25.8396
365 1 Ar 32.2995 32.2995 32.2995
366 1 Ar 32.2995 32.2995 38.7595
367 1 Ar 32.2995 32.2995 45.2194
368 1 Ar 32.2995 38.7595 0
369 1 Ar 32.2995 38.7595 6.45991
370 1 Ar 32.2995 38.7595 12.9198
371 1 Ar 32.2995 38.7595 19.3797
372 1 Ar 32.2995 38.7595 25.8396
373 1 Ar 32.2995 38.7595 32.2995
374 1 Ar 32.2995 38.7595 38.7595
375 1 Ar 32.2995 38.7595 45.2194
376 1 Ar 32.2995 45.2194 0
377 1 Ar 32.2995 45.2194 6.45991
378 1 Ar 32.2995 45.2194 12.9198
379 1 Ar 32.2995 45.2194 19.3797
380 1 Ar 32.2995 45.2194 25.8396
381 1 Ar 32.2995 45.2194 32.2995
382 1 Ar 32.2995 45.2194 38.7595
383 1 Ar 32.2995 45.2194 45.2194
384 1 Ar 38.7595 0 0
385 1 Ar 38.7595 0 6.45991
386 1 Ar 38.7595 0 12.9198
387 1 Ar 38.7595 0 19.3797
388 1 Ar 38.7595 0 25.8396
389 1 Ar 38.7595 0 32.2995
390 1 Ar 38.7595 0 38.7595
391 1 Ar 38.7595 0 45.2194
392 1 Ar 38.7595 6.45991 0
393 1 Ar 38.7595 6.45991 6.45991
394 1 Ar 38.7595 6.45991 12.9198
395 1 Ar 38.7595 6.45991 19.3797
396 1 Ar 38.7595 6.45991 25.8396
397 1 Ar 38.7595 6.45991 32.2995
398 1 Ar 38.7595 6.45991 38.7595
399 1 Ar 38.7595 6.45991 45.2194
400 1 Ar 38.7595 12.9198 0
401 1 Ar 38.7595 12.9198 6.45991
402 1 Ar 38.7595 12.9198 12.9198
403 1 Ar 38.7595 12.9198 19.3797
404 1 Ar 38.7595 12.9198 25.8396
405 1 Ar 38.7595 12.9198 32.2995
406 1 Ar 38.7595 12.9198 38.7595
407 1 Ar 38.7595 12.9198 45.2194
408 1 Ar 38.7595 19.3797 0
409 1 Ar 38.7595 19.3797 6.45991
410 1 Ar 38.7595 19.3797 12.9198
411 1 Ar 38.7595 19.3797 19.3797
412 1 Ar 38.7595 19.3797 25.8396
413 1 Ar 38.7595 19.3797 32.2995
414 1 Ar 38.7595 19.3797 38.7595
415 1 Ar 38.7595 19.3797 45.2194
416 1 Ar 38.7595 25.8396 0
417 1 Ar 38.7595 25.8396 6.45991
418 1 Ar 38.7595 25.8396 12.9198
419 1 Ar 38.7595 25.8396 19.3797
420 1 Ar 38.7595 25.8396 25.8396
421 1 Ar 38.7595 25.8396 32.2995
422 1 Ar 38.7595 25.8396 38.7595
423 1 Ar 38.7595 25.8396 45.2194
424 1 Ar 38.7595 32.2995 0
425 1 Ar 38.7595 32.2995 6.45991
426 1 Ar 38.7595 32.2995 12.9198
427 1 Ar 38.7595 32.2995 19.3797
428 1 Ar 38.7595 32.2995 25.8396
429 1 Ar 38.7595 32.2995 32.2995
430 1 Ar 38.7595 32.2995 38.7595
431 1 Ar 38.7595 32.2995 45.2194
432 1 Ar 38.7595 38.7595 0
433 1 Ar 38.7595 38.7595 6.45991
434 1 Ar 38.7595 38.7595 12.9198
435 1 Ar 38.7595 38.7595 19.3797
436 1 Ar 38.7595 38.7595 25.8396
437 1 Ar 38.7595 38.7595 32.2995
438 1 Ar 38.7595 38.7595 38.7595
439 1 Ar 38.7595 38.7595 45.2194
440 1 Ar 38.7595 45.2194 0
441 1 Ar 38.7595 45.2194 6.45991
442 1 Ar 38.7595 45.2194 12.9198
443 1 Ar 38.7595 45.2194 19.3797
444 1 Ar 38.7595 45.2194 25.8396
445 1 Ar 38.7595 45.2194 32.2995
446 1 Ar 38.7595 45.2194 38.7595
447 1 Ar 38.7595 45.2194 45.2194
448 1 Ar 45.2194 0 0
449 1 Ar 45.2194 0 6.45991
450 1 Ar 45.2194 0 12.9198
451 1 Ar 45.2194 0 19.3797
452 1 Ar 45.2194 0 25.8396
453 1 Ar 45.2194 0 32.2995
454 1 Ar 45.2194 0 38.7595
455 1 Ar 45.2194 0 45.2194
456 1 Ar 45.2194 6.45991 0
457 1 Ar 45.2194 6.45991 6.45991
458 1 Ar 45.2194 6.45991 12.9198
459 1 Ar 45.2194 6.45991 19.3797
460 1 Ar 45.2194 6.45991 25.8396
461 1 Ar 45.2194 6.45991 32.2995
462 1 Ar 45.2194 6.45991 38.7595
463 1 Ar 45.2194 6.45991 45.2194
464 1 Ar 45.2194 12.9198 0
465 1 Ar 45.2194 12.9198 6.45991
466 1 Ar 45.2194 12.9198 12.9198
467 1 Ar 45.2194 12.9198 19.3797
468 1 Ar 45.2194 12.9198 25.8396
469 1 Ar 45.2194 12.9198 32.2995
470 1 Ar 45.2194 12.9198 38.7595
471 1 Ar 45.2194 12.9198 45.2194
472 1 Ar 45.2194 19.3797 0
473 1 Ar 45.2194 19.3797 6.45991
474 1 Ar 45.2194 19.3797 12.9198
475 1 Ar 45.2194 19.3797 19.3797
476 1 Ar 45.2194 19.3797 25.8396
477 1 Ar 45.2194 19.3797 32.2995
478 1 Ar 45.2194 19.3797 38.7595
479 1 Ar 45.2194 19.3797 45.2194
480 1 Ar 45.2194 25.8396 0
481 1 Ar 45.2194 25.8396 6.45991
482 1 Ar 45.2194 25.8396 12.9198
483 1 Ar 45.2194 25.8396 19.3797
484 1 Ar 45.2194 25.8396 25.8396
485 1 Ar 45.2194 25.8396 32.2995
486 1 Ar 45.2194 25.8396 38.7595
487 1 Ar 45.2194 25.8396 45.2194
488 1 Ar 45.2194 32.2995 0
489 1 Ar 45.2194 32.2995 6.45991
490 1 Ar 45.2194 32.2995 12.9198
491 1 Ar 45.2194 32.2995 19.3797
492 1 Ar 45.2194 32.2995 25.8396
493 1 Ar 45.2194 32.2995 32.2995
494 1 Ar 45.2194 32.2995 38.7595
495 1 Ar 45.2194 32.2995 45.2194
496 1 Ar 45.2194 38.7595 0
497 1 Ar 45.2194 38.7595 6.45991
498 1 Ar 45.2194 38.7595 12.9198
499 1 Ar 45.2194 38.7595 19.3797
ITEM: TIMESTEP
19999
ITEM: NUMBER OF ATOMS
500
ITEM: BOX BOUNDS pp pp pp
0 58.1392
0 58.1392
0 58.1392
ITEM: ATOMS id type element xu yu zu
0 1 Ar 30.3495 12.6526 30.969
1 1 Ar 9.39526 30.5748 6.84003
2 1 Ar 16.2696 53.3455 12.9413
3 1 Ar 25.9432 17.2617 56.3369
4 1 Ar 23.2076 19.3742 38.4134
5 1 Ar 6.94232 3.83585 0.41767
6 1 Ar 1.19054 51.1835 6.72474
7 1 Ar 5.55408 33.5958 3.19601
8 1 Ar 23.4395 51.6426 56.0865
9 1 Ar 35.1619 56.6688 6.9324
10 1 Ar 42.8844 52.7351 8.63976
11 1 Ar 31.1134 53.8348 41.6669
12 1 Ar 30.4396 49.5776 11.6844
13 1 Ar 36.9719 34.2107 44.4836
14 1 Ar 3.07593 5.41511 42.1299
15 1 Ar 48.2042 9.43043 47.9512
16 1 Ar 36.7828 50.2028 8.52716
17 1 Ar 28.9277 35.505 4.09074
18 1 Ar 56.9597 36.692 0.434598
19 1 Ar 21.6898 3.25953 45.0468
20 1 Ar 32.7127 41.9726 34.8832
21 1 Ar 5.07514 34.0638 56.8534
22 1 Ar 42.2417 36.4401 29.186
23 1 Ar 42.0292 33.4332 38.4267
24 1 Ar 2.39444 14.9992 40.8526
25 1 Ar 48.8703 52.6788 43.4311
26 1 Ar 45.0053 27.032 52.7195
27 1 Ar 55.8539 33.0857 15.6513
28 1 Ar 11.5125 8.93696 12.4393
29 1 Ar 19.8691 6.36702 47.0654
30 1 Ar 34.8317 21.1718 9.14784
31 1 Ar 33.9882 31.2023 42.1641
32 1 Ar 55.0774 5.70801 7.56847
33 1 Ar 15.7337 11.0721 40.2055
34 1 Ar 17.5138 30.5763 30.7445
35 1 Ar 44.0002 8.85207 34.8508
36 1 Ar 38.686 38.4524 42.6248
37 1 Ar 14.348 37.7024 55.979
38 1 Ar 22.2212 32.9892 19.541
39 1 Ar 39.8711 36.1324 22.3816
40 1 Ar 29.1436 11.6623 54.4883
41 1 Ar 45.5077 3.87581 41.5337
42 1 Ar 53.9302 40.3275 0.34361
43 1 Ar 28.9109 55.333 0.163471
44 1 Ar 41.5182 10.9752 36.3815
45 1 Ar 40.1181 25.8118 25.5857
46 1 Ar 7.55674 41.919 10.5681
47 1 Ar 25.1719 16.5116 37.561
48 1 Ar 42.8686 1.22724 36.5262
49 1 Ar 48.1158 41.3043 25.208
50 1 Ar 37.135 43.5703 41.2724
51 1 Ar 39.2648 8.24506 51.5347
52 1 Ar 16.7716 35.6204 31.3409
53 1 Ar 22.0442 3.23191 57.9724
54 1 Ar 1.18293 9.86457 44.9295
55 1 Ar 34.5781 10.186 5.038
56 1 Ar 39.3099 6.95544 3.93117
57 1 Ar 52.2081 39.1452 52.9836
58 1 Ar 6.77191 13.7188 41.3786
59 1 Ar 42.3958 52.5643 12.1812
60 1 Ar 34.2404 36.1416 56.4528
61 1 Ar 4.61391 7.19859 44.6251
62 1 Ar 40.7325 19.1461 30.2652
63 1 Ar 18.2349 4.18674 9.68439
64 1 Ar 0.506198 29.2017 37.5486
65 1 Ar 57.4376 40.5725 33.1752
66 1 Ar 14.1638 13.4186 6.29887
67 1 Ar 56.6395 4.49458 43.9743
68 1 Ar 12.9429 32.1274 1.8784
69 1 Ar 44.7897 37.8739 33.3571
70 1 Ar 4.15998 38.7171 39.3539
71 1 Ar 46.1203 0.424435 20.8098
72 1 Ar 35.347 25.1338 22.1883
73 1 Ar 16.5236 20.6239 46.5497
74 1 Ar 14.7182 40.1736 9.95793
75 1 Ar 1.9027 37.5987 50.4276
76 1 Ar 37.3273 23.0377 27.6133
77 1 Ar 14.0699 19.935 34.3118
78 1 Ar 0.517454 25.0132 46.4118
79 1 Ar 26.9229 50.1311 51.8093
80 1 Ar 37.1836 21.7886 45.7655
81 1 Ar 28.8858 15.9711 53.2926
82 1 Ar 32.5468 14.6015 50.2386
83 1 Ar 22.4003 5.47528 11.6292
84 1 Ar 23.4938 37.808 53.5591
85 1 Ar 12.1608 25.4104 26.4733
86 1 Ar 7.71326 41.1348 0.692476
87 1 Ar 50.9048 26.1934 34.1347
88 1 Ar 12.5046 23.2825 29.7773
89 1 Ar 40.3729 32.4164 10.9818
90 1 Ar 26.2551 45.6108 40.479
91 1 Ar 42.0271 13.536 44.7488
92 1 Ar 57.4508 31.3985 39.5505
93 1 Ar 26.0939 47.5407 55.3555
94 1 Ar 24.7887 3.22056 32.2079
95 1 Ar 16.4656 50.6677 15.7942
96 1 Ar 33.4354 13.1027 7.14063
97 1 Ar 14.5498 8.77901 33.1389
98 1 Ar 35.222 48.1675 20.8765
99 1 Ar 46.6536 10.8721 40.7387
100 1 Ar 19.0603 3.46349 2.15256
101 1 Ar 36.3784 17.0872 44.8947
102 1 Ar 53.7703 55.8151 31.2717
103 1 Ar 11.6335 20.2122 14.2128
104 1 Ar 13.9704 44.2096 9.48059
105 1 Ar 11.3506 56.4943 29.5824
106 1 Ar 41.5201 21.3039 26.0895
107 1 Ar 3.26513 38.8004 45.0688
108 1 Ar 54.9475 55.1751 46.0123
109 1 Ar 57.0805 48.6709 29.457
110 1 Ar 45.2291 56.8268 13.8717
111 1 Ar 56.7284 27.9107 14.2184
112 1 Ar 45.7666 55.5212 57.7931
113 1 Ar 50.0782 0.58021 29.0349
114 1 Ar 41.7545 34.9437 14.7742
115 1 Ar 55.3214 11.3074 53.3463
116 1 Ar 5.7914 21.8117 5.39367
117 1 Ar 49.7214 5.1003 33.1866
118 1 Ar 11.2396 53.1711 46.8093
119 1 Ar 5.52382 17.4012 45.641
120 1 Ar 13.8369 18.7942 23.0157
121 1 Ar 50.0058 55.0513 30.8197
122 1 Ar 57.5148 45.1801 48.1214
123 1 Ar 8.7659 40.9645 31.699
124 1 Ar 19.2115 42.6275 4.79197
125 1 Ar 0.898815 49.7313 12.5791
126 1 Ar 53.9485 52.3459 25.2593
127 1 Ar 0.826759 35.957 14.0715
128 1 Ar 10.8879 50.8028 34.2867
129 1 Ar 54.8651 41.2756 47.1755
130 1 Ar 47.7735 43.1995 49.3067
131 1 Ar 0.823522 38.1106 10.6464
132 1 Ar 29.7317 15.599 45.7496
133 1 Ar 17.8894 26.5584 55.0967
134 1 Ar 54.7416 16.4374 6.36878
135 1 Ar 18.6949 5.17548 57.0138
136 1 Ar 3.72108 31.1207 36.9071
137 1 Ar 19.7644 19.1715 54.1007
138 1 Ar 4.57052 43.4977 33.6929
139 1 Ar 17.5409 11.2964 27.0934
140 1 Ar 25.3488 42.6376 55.3174
141 1 Ar 4.76191 37.7985 3.60501
142 1 Ar 9.15456 18.3666 48.7781
143 1 Ar 56.5367 41.3414 13.9106
144 1 Ar 20.8875 7.78842 43.1099
145 1 Ar 1.86175 47.7399 16.7141
146 1 Ar 1.26825 56.01 9.67349
147 1 Ar 7.88069 0.00223653 13.7243
148 1 Ar 21.382 15.5818 54.1965
149 1 Ar 27.2446 10.2488 0.672219
150 1 Ar 12.9432 18.1863 46.2392
151 1 Ar 57.164 33.2866 35.9853
152 1 Ar 42.8502 28.9374 46.3016
153 1 Ar 33.4366 51.6857 28.3201
154 1 Ar 35.2201 3.0678 41.5535
155 1 Ar 15.6871 25.3588 37.7758
156 1 Ar 1.60682 29.1777 41.4039
157 1 Ar 51.3788 29.0846 13.1653
158 1 Ar 33.9082 22.7453 45.3599
159 1 Ar 56.6025 40.9284 8.56195
160 1 Ar 55.1451 51.7248 5.92432
161 1 Ar 21.083 0.097382 38.9611
162 1 Ar 29.4389 19.6192 12.0639
163 1 Ar 4.18558 40.3763 7.80088
164 1 Ar 5.15189 50.2471 41.7518
165 1 Ar 2.35177 42.6676 10.2217
166 1 Ar 16.9672 54.47 49.0725
167 1 Ar 3.78677 51.8328 0.338335
168 1 Ar 44.6721 21.1172 6.03717
169 1 Ar 23.6797 15.8012 34.1801
170 1 Ar 56.0328 30.7199 10.6309
171 1 Ar 49.2583 53.6339 2.34101
172 1 Ar 30.8632 35.6132 11.1672
173 1 Ar 16.4875 3.88434 48.9293
174 1 Ar 57.1509 7.62694 42.1397
175 1 Ar 0.240341 25.9424 6.75681
176 1 Ar 56.259 54.1676 29.4821
177 1 Ar 16.9395 10.8633 47.6262
178 1 Ar 32.9927 18.5851 47.6557
179 1 Ar 48.3462 3.95036 37.4024
180 1 Ar 57.652 34.2291 10.313
181 1 Ar 30.952 30.1345 25.1822
182 1 Ar 43.8851 0.0220399 40.9949
183 1 Ar 1.79336 33.9008 38.9212
184 1 Ar 47.7532 54.9115 20.4955
185 1 Ar 29.0994 19.5 51.6934
186 1 Ar 7.26013 52.8672 7.05652
187 1 Ar 29.4016 26.2866 49.2279
188 1 Ar 41.7714 51.6583 56.3159
189 1 Ar 17.5328 46.7139 3.52097
190 1 Ar 50.0321 37.1956 29.3748
191 1 Ar 51.1058 43.1936 51.1125
192 1 Ar 15.9711 47.9001 6.83708
193 1 Ar 39.2424 10.7595 46.8961
194 1 Ar 55.3317 20.9233 26.8456
195 1 Ar 5.10266 27.7914 37.8731
196 1 Ar 3.88011 19.8446 32.2124
197 1 Ar 14.0742 7.05415 19.1981
198 1 Ar 55.0175 37.4082 44.9254
199 1 Ar 20.9996 0.490217 47.5324
200 1 Ar 0.552345 42.7003 22.3413
201 1 Ar 4.47048 47.5612 51.4679
202 1 Ar 51.3367 1.6709 53.3325
203 1 Ar 32.9755 6.37063 4.84331
204 1 Ar 2.12932 17.451 6.41612
205 1 Ar 5.2313 32.9966 40.0285
206 1 Ar 57.1913 38.5156 40.4855
207 1 Ar 23.5531 10.9649 3.33084
208 1 Ar 7.08946 20.2599 42.8249
209 1 Ar 28.1796 32.4208 17.0167
210 1 Ar 39.706 34.7451 57.8447
211 1 Ar 55.8893 2.31072 50.2892
212 1 Ar 3.59055 37.4541 24.1543
213 1 Ar 55.3034 24.2788 49.2071
214 1 Ar 21.5779 5.11676 27.6873
215 1 Ar 29.8892 43.0073 6.46888
216 1 Ar 30.3719 37.0653 7.04047
217 1 Ar 10.4708 23.466 47.3215
218 1 Ar 11.0847 6.68002 44.7138
219 1 Ar 20.0362 42.9493 0.18351
220 1 Ar 16.5667 20.9363 2.83421
221 1 Ar 51.4615 40.0777 35.5515
222 1 Ar 28.7424 30.9858 56.8826
223 1 Ar 16.8917 16.2697 4.52848
224 1 Ar 2.04314 49.274 43.2728
225 1 Ar 22.9589 9.22973 33.2894
226 1 Ar 17.5603 16.8662 7.82721
227 1 Ar 53.644 45.3186 52.6743
228 1 Ar 57.9812 46.1474 3.44991
229 1 Ar 32.0582 21.6192 52.0698
230 1 Ar 33.0285 53.6237 23.3192
231 1 Ar 44.1899 6.08481 16.9068
232 1 Ar 35.3635 31.0427 46.7223
233 1 Ar 18.628 14.7271 38.4918
234 1 Ar 33.5092 16.7252 38.8681
235 1 Ar 24.4639 35.8471 40.6395
236 1 Ar 54.0404 12.7872 17.1029
237 1 Ar 6.70844 12.078 50.7947
238 1 Ar 25.4449 0.0908601 0.282065
239 1 Ar 19.0351 57.1585 44.8623
240 1 Ar 50.3057 43.8988 5.14296
241 1 Ar 17.7756 45.5161 10.4148
242 1 Ar 44.7283 53.9821 28.4856
243 1 Ar 31.4661 41.7729 41.7793
244 1 Ar 15.7957 33.1244 25.7103
245 1 Ar 14.5965 9.24491 28.2087
246 1 Ar 6.9936 52.6124 29.7458
247 1 Ar 45.88 4.55586 46.247
248 1 Ar 54.7721 51.2644 30.5974
249 1 Ar 43.2816 29.8211 11.038
250 1 Ar 0.00132026 24.3195 51.448
251 1 Ar 3.02247 12.1338 26.428
252 1 Ar 51.0132 27.9808 5.56573
253 1 Ar 13.8431 57.0461 14.3423
254 1 Ar 0.170205 55.206 56.0215
255 1 Ar 16.3334 30.152 1.05094
256 1 Ar 14.7389 6.97858 57.7925
257 1 Ar 25.4769 55.8395 13.5387
258 1 Ar 27.3937 33.6583 39.5912
259 1 Ar 22.4374 48.7515 20.132
260 1 Ar 10.206 13.5467 6.0162
261 1 Ar 29.3656 55.7546 54.5941
262 1 Ar 43.0392 35.699 0.44645
263 1 Ar 25.683 51.4118 26.5997
264 1 Ar 20.1083 19.6518 42.5781
265 1 Ar 43.4287 25.8633 14.1885
266 1 Ar 14.7302 17.4406 57.6303
267 1 Ar 44.6073 14.2471 26.2575
268 1 Ar 47.8812 37.1321 38.9168
269 1 Ar 14.8106 53.2367 3.92235
270 1 Ar 53.0041 18.5425 8.84893
271 1 Ar 50.4504 49.5925 33.3581
272 1 Ar 10.7521 45.9589 47.1597
273 1 Ar 56.033 19.4571 57.2754
274 1 Ar 26.8831 51.7726 57.3043
275 1 Ar 54.7107 20.7739 12.4545
276 1 Ar 51.3413 43.4821 34.2263
277 1 Ar 29.8886 46.0255 8.83218
278 1 Ar 28.8704 20.2248 56.1204
279 1 Ar 3.43243 29.2186 8.09428
280 1 Ar 34.0643 16.6833 20.0011
281 1 Ar 32.8254 50.161 41.8331
282 1 Ar 27.8889 13.3148 57.6865
283 1 Ar 2.82725 23.8404 55.0324
284 1 Ar 15.5293 3.07398 37.8033
285 1 Ar 22.0208 36.6764 20.9939
286 1 Ar 3.16321 1.67176 48.7394
287 1 Ar 55.6216 49.1781 17.7017
288 1 Ar 42.0324 41.618 56.0933
289 1 Ar 49.0733 30.0653 26.2418
290 1 Ar 31.6498 40.3732 4.50716
291 1 Ar 2.54717 43.6936 16.7643
292 1 Ar 45.9097 55.3093 41.3066
293 1 Ar 50.6053 19.1312 47.2844
294 1 Ar 5.97138 48.3047 12.3262
295 1 Ar 0.229343 48.7818 25.7598
296 1 Ar 13.6861 21.7279 53.879
297 1 Ar 6.68829 25.1706 53.5598
298 1 Ar 8.64661 34.0053 56.3202
299 1 Ar 26.5183 19.4967 0.807816
300 1 Ar 18.1543 29.8391 38.6949
301 1 Ar 31.1405 18.9446 44.7786
302 1 Ar 12.9369 25.6949 0.242866
303 1 Ar 15.2014 9.32841 24.3748
304 1 Ar 38.4586 50.8391 54.8529
305 1 Ar 49.1313 41.4276 2.66645
306 1 Ar 29.4994 20.435 3.46359
307 1 Ar 56.7205 8.07558 11.5605
308 1 Ar 22.1244 43.5392 54.5518
309 1 Ar 26.0492 21.0211 16.5864
310 1 Ar 21.5763 33.3986 23.9048
311 1 Ar 35.5977 53.1971 56.1532
312 1 Ar 54.8838 5.19423 33.5177
313 1 Ar 23.0183 23.4213 55.0059
314 1 Ar 57.0951 37.0663 35.3027
315 1 Ar 2.80378 48.1845 39.054
316 1 Ar 7.27856 2.03251 44.7463
317 1 Ar 4.06 22.348 1.3887
318 1 Ar 2.46478 5.62099 11.8726
319 1 Ar 8.64133 44.7463 30.5241
320 1 Ar 57.3875 24.0376 20.7196
321 1 Ar 29.4221 37.0823 46.8429
322 1 Ar 33.7721 1.16823 28.6622
323 1 Ar 55.1156 0.571743 33.4203
324 1 Ar 18.7308 6.85463 40.0393
325 1 Ar 23.9692 39.5985 36.8451
326 1 Ar 1.29521 31.0244 3.23601
327 1 Ar 6.98842 3.18904 50.0003
328 1 Ar 2.57639 50.2034 21.9479
329 1 Ar 9.74051 1.2797 48.3668
330 1 Ar 36.3403 44.5885 32.4938
331 1 Ar 7.34903 34.4097 20.7171
332 1 Ar 2.84661 42.8476 4.81518
333 1 Ar 36.4234 17.6247 49.1507
334 1 Ar 9.55023 41.0349 36.1314
335 1 Ar 42.1474 23.7883 0.34613
336 1 Ar 2.24952 33.1975 6.25132
337 1 Ar 6.83529 39.206 27.2981
338 1 Ar 16.7191 5.68412 43.558
339 1 Ar 49.4246 15.3047 6.20094
340 1 Ar 57.707 14.1426 12.6099
341 1 Ar 20.6447 6.31573 34.6964
342 1 Ar 8.52315 15.2797 11.149
343 1 Ar 52.1816 1.69313 24.9638
344 1 Ar 43.2262 36.2827 55.1221
345 1 Ar 27.0951 43.4318 27.8296
346 1 Ar 10.8441 17.4923 3.94696
347 1 Ar 3.10289 15.0118 51.6222
348 1 Ar 18.7747 36.8619 25.0407
349 1 Ar 17.9674 38.0269 50.8859
350 1 Ar 13.3333 56.9357 7.37981
351 1 Ar 48.8507 31.4329 3.99989
352 1 Ar 3.96937 14.0013 20.1675
353 1 Ar 4.65027 11.4237 43.0762
354 1 Ar 44.721 19.7234 44.5327
355 1 Ar 12.5477 9.86273 41.3471
356 1 Ar 51.525 56.4421 26.9243
357 1 Ar 57.1486 21.2004 50.4462
358 1 Ar 17.6685 38.7862 8.22138
359 1 Ar 35.4435 57.0779 18.3634
360 1 Ar 25.0036 4.51784 25.7104
361 1 Ar 15.5583 57.3299 20.0031
362 1 Ar 49.5918 3.42867 11.1623
363 1 Ar 23.6882 17.6079 42.5324
364 1 Ar 28.3069 51.0207 15.3343
365 1 Ar 50.834 2.42381 48.848
366 1 Ar 40.5857 47.3793 12.5629
367 1 Ar 33.9902 18.9378 51.3118
368 1 Ar 16.4978 37.4447 47.9596
369 1 Ar 50.976 14.668 13.6839
370 1 Ar 15.78 7.16335 47.5668
371 1 Ar 5.09816 31.3465 26.2473
372 1 Ar 35.2352 38.4998 23.4243
373 1 Ar 6.34804 42.1715 40.5465
374 1 Ar 16.7305 29.3341 25.9426
375 1 Ar 48.6893 28.6653 53.3718
376 1 Ar 20.3641 42.4238 8.43733
377 1 Ar 46.2741 9.73655 45.1299
378 1 Ar 5.22748 41.6833 20.7684
379 1 Ar 52.0414 22.7037 49.1906
380 1 Ar 37.4634 10.917 7.93224
381 1 Ar 1.35496 37.7192 42.755
382 1 Ar 56.6119 45.8898 16.7582
383 1 Ar 47.1106 51.7968 46.3437
384 1 Ar 11.0445 18.7157 52.9801
385 1 Ar 36.1138 36.8437 31.9647
386 1 Ar 17.8324 7.04724 50.7519
387 1 Ar 19.0095 31.0716 34.8854
388 1 Ar 41.2406 45.2753 39.0839
389 1 Ar 13.0576 1.48295 41.4989
390 1 Ar 20.7243 28.1823 17.4531
391 1 Ar 19.2825 45.5583 21.1659
392 1 Ar 42.0725 32.7837 43.2475
393 1 Ar 18.7511 19.3001 31.4321
394 1 Ar 18.0092 10.0068 43.8036
395 1 Ar 20.5454 33.4574 16.326
396 1 Ar 49.5316 8.92411 53.5351
397 1 Ar 28.6861 42.7933 38.8578
398 1 Ar 12.636 25.1686 36.0318
399 1 Ar 13.6337 39.709 48.8329
400 1 Ar 39.0803 40.1163 47.2662
401 1 Ar 32.2792 13.4556 24.9677
402 1 Ar 5.35782 5.6175 54.2883
403 1 Ar 37.4252 56.3789 41.3751
404 1 Ar 12.9906 9.70505 8.38654
405 1 Ar 57.9409 41.9053 57.0745
406 1 Ar 14.7251 35.0389 51.8296
407 1 Ar 16.1642 2.41462 45.7348
408 1 Ar 14.6363 55.0397 39.7868
409 1 Ar 30.6458 32.0655 21.3982
410 1 Ar 5.6421 0.232065 55.5876
411 1 Ar 51.3056 54.8653 34.0974
412 1 Ar 37.8455 8.10115 10.5521
413 1 Ar 20.1218 34.5927 27.1802
414 1 Ar 44.1424 15.0136 53.1687
415 1 Ar 32.9685 46.8694 40.5875
416 1 Ar 8.96495 7.72924 25.5548
417 1 Ar 11.7825 10.0945 26.5515
418 1 Ar 10.1011 37.94 57.6522
419 1 Ar 52.3177 35.1138 46.6761
420 1 Ar 13.0923 32.3936 6.10291
421 1 Ar 0.565017 54.1635 2.99857
422 1 Ar 40.301 14.7579 8.9451
423 1 Ar 51.0887 17.4717 20.2145
424 1 Ar 57.1689 45.0252 33.0036
425 1 Ar 22.433 0.130955 43.6441
426 1 Ar 19.1213 26.0886 9.73296
427 1 Ar 53.269 18.8919 3.81173
428 1 Ar 24.6668 57.8246 48.2536
429 1 Ar 37.0825 20.2858 41.9056
430 1 Ar 18.7525 33.6135 21.4036
431 1 Ar 36.384 39.5934 6.48414
432 1 Ar 22.4711 6.16383 39.6623
433 1 Ar 8.56852 44.3413 34.9349
434 1 Ar 12.5327 43.7524 35.3593
435 1 Ar 14.6733 24.288 32.4849
436 1 Ar 0.1445 56.6808 34.9426
437 1 Ar 19.6403 22.2152 29.1638
438 1 Ar 48.3259 44.3532 8.70772
439 1 Ar 19.2607 26.2403 30.2866
440 1 Ar 16.8689 51.6127 1.15971
441 1 Ar 1.09353 44.6746 28.085
442 1 Ar 8.70582 41.3465 15.2284
443 1 Ar 1.57938 2.59078 44.5675