ITEM: TIMESTEP
-1
ITEM: NUMBER OF ATOMS
500
ITEM: BOX BOUNDS pp pp pp
0 34
0 34
0 34
ITEM: ATOMS id type element xu yu zu
0 1 Ar 0 0 0
1 1 Ar 0 0 3.77778
2 1 Ar 0 0 7.55556
3 1 Ar 0 0 11.3333
4 1 Ar 0 0 15.1111
5 1 Ar 0 0 18.8889
6 1 Ar 0 0 22.6667
7 1 Ar 0 0 26.4444
8 1 Ar 0 3.77778 0
9 1 Ar 0 3.77778 3.77778
10 1 Ar 0 3.77778 7.55556
11 1 Ar 0 3.77778 11.3333
12 1 Ar 0 3.77778 15.1111
13 1 Ar 0 3.77778 18.8889
14 1 Ar 0 3.77778 22.6667
15 1 Ar 0 3.77778 26.4444
16 1 Ar 0 7.55556 0
17 1 Ar 0 7.55556 3.77778
18 1 Ar 0 7.55556 7.55556
19 1 Ar 0 7.55556 11.3333
20 1 Ar 0 7.55556 15.1111
21 1 Ar 0 7.55556 18.8889
22 1 Ar 0 7.55556 22.6667
23 1 Ar 0 7.55556 26.4444
24 1 Ar 0 11.3333 0
25 1 Ar 0 11.3333 3.77778
26 1 Ar 0 11.3333 7.55556
27 1 Ar 0 11.3333 11.3333
28 1 Ar 0 11.3333 15.1111
29 1 Ar 0 11.3333 18.8889
30 1 Ar 0 11.3333 22.6667
31 1 Ar 0 11.3333 26.4444
32 1 Ar 0 15.1111 0
33 1 Ar 0 15.1111 3.77778
34 1 Ar 0 15.1111 7.55556
35 1 Ar 0 15.1111 11.3333
36 1 Ar 0 15.1111 15.1111
37 1 Ar 0 15.1111 18.8889
38 1 Ar 0 15.1111 22.6667
39 1 Ar 0 15.1111 26.4444
40 1 Ar 0 18.8889 0
41 1 Ar 0 18.8889 3.77778
42 1 Ar 0 18.8889 7.55556
43 1 Ar 0 18.8889 11.3333
44 1 Ar 0 18.8889 15.1111
45 1 Ar 0 18.8889 18.8889
46 1 Ar 0 18.8889 22.6667
47 1 Ar 0 18.8889 26.4444
48 1 Ar 0 22.6667 0
49 1 Ar 0 22.6667 3.77778
50 1 Ar 0 22.6667 7.55556
51 1 Ar 0 22.6667 11.3333
52 1 Ar 0 22.6667 15.1111
53 1 Ar 0 22.6667 18.8889
54 1 Ar 0 22.6667 22.6667
55 1 Ar 0 22.6667 26.4444
56 1 Ar 0 26.4444 0
57 1 Ar 0 26.4444 3.77778
58 1 Ar 0 26.4444 7.55556
59 1 Ar 0 26.4444 11.3333
60 1 Ar 0 26.4444 15.1111
61 1 Ar 0 26.4444 18.8889
62 1 Ar 0 26.4444 22.6667
63 1 Ar 0 26.4444 26.4444
64 1 Ar 3.77778 0 0
65 1 Ar 3.77778 0 3.77778
66 1 Ar 3.77778 0 7.55556
67 1 Ar 3.77778 0 11.3333
68 1 Ar 3.77778 0 15.1111
69 1 Ar 3.77778 0 18.8889
70 1 Ar 3.77778 0 22.6667
71 1 Ar 3.77778 0 26.4444
72 1 Ar 3.77778 3.77778 0
73 1 Ar 3.77778 3.77778 3.77778
74 1 Ar 3.77778 3.77778 7.55556
75 1 Ar 3.77778 3.77778 11.3333
76 1 Ar 3.77778 3.77778 15.1111
77 1 Ar 3.77778 3.77778 18.8889
78 1 Ar 3.77778 3.77778 22.6667
79 1 Ar 3.77778 3.77778 26.4444
80 1 Ar 3.77778 7.55556 0
81 1 Ar 3.77778 7.55556 3.77778
82 1 Ar 3.77778 7.55556 7.55556
83 1 Ar 3.77778 7.55556 11.3333
84 1 Ar 3.77778 7.55556 15.1111
85 1 Ar 3.77778 7.55556 18.8889
86 1 Ar 3.77778 7.55556 22.6667
87 1 Ar 3.77778 7.55556 26.4444
88 1 Ar 3.77778 11.3333 0
89 1 Ar 3.77778 11.3333 3.77778
90 1 Ar 3.77778 11.3333 7.55556
91 1 Ar 3.77778 11.3333 11.3333
92 1 Ar 3.77778 11.3333 15.1111
93 1 Ar 3.77778 11.3333 18.8889
94 1 Ar 3.77778 11.3333 22.6667
95 1 Ar 3.77778 11.3333 26.4444
96 1 Ar 3.77778 15.1111 0
97 1 Ar 3.77778 15.1111 3.77778
98 1 Ar 3.77778 15.1111 7.55556
99 1 Ar 3.77778 15.1111 11.3333
100 1 Ar 3.77778 15.1111 15.1111
101 1 Ar 3.77778 15.1111 18.8889
102 1 Ar 3.77778 15.1111 22.6667
103 1 Ar 3.77778 15.1111 26.4444
104 1 Ar 3.77778 18.8889 0
105 1 Ar 3.77778 18.8889 3.77778
106 1 Ar 3.77778 18.8889 7.55556
107 1 Ar 3.77778 18.8889 11.3333
108 1 Ar 3.77778 18.8889 15.1111
109 1 Ar 3.77778 18.8889 18.8889
110 1 Ar 3.77778 18.8889 22.6667
111 1 Ar 3.77778 18.8889 26.4444
112 1 Ar 3.77778 22.6667 0
113 1 Ar 3.77778 22.6667 3.77778
114 1 Ar 3.77778 22.6667 7.55556
115 1 Ar 3.77778 22.6667 11.3333
116 1 Ar 3.77778 22.6667 15.1111
117 1 Ar 3.77778 22.6667 18.8889
118 1 Ar 3.77778 22.6667 22.6667
119 1 Ar 3.77778 22.6667 26.4444
120 1 Ar 3.77778 26.4444 0
121 1 Ar 3.77778 26.4444 3.77778
122 1 Ar 3.77778 26.4444 7.55556
123 1 Ar 3.77778 26.4444 11.3333
124 1 Ar 3.77778 26.4444 15.1111
125 1 Ar 3.77778 26.4444 18.8889
126 1 Ar 3.77778 26.4444 22.6667
127 1 Ar 3.77778 26.4444 26.4444
128 1 Ar 7.55556 0 0
129 1 Ar 7.55556 0 3.77778
130 1 Ar 7.55556 0 7.55556
131 1 Ar 7.55556 0 11.3333
132 1 Ar 7.55556 0 15.1111
133 1 Ar 7.55556 0 18.8889
134 1 Ar 7.55556 0 22.6667
135 1 Ar 7.55556 0 26.4444
136 1 Ar 7.55556 3.77778 0
137 1 Ar 7.55556 3.77778 3.77778
138 1 Ar 7.55556 3.77778 7.55556
139 1 Ar 7.55556 3.77778 11.3333
140 1 Ar 7.55556 3.77778 15.1111
141 1 Ar 7.55556 3.77778 18.8889
142 1 Ar 7.55556 3.77778 22.6667
143 1 Ar 7.55556 3.77778 26.4444
144 1 Ar 7.55556 7.55556 0
145 1 Ar 7.55556 7.55556 3.77778
146 1 Ar 7.55556 7.55556 7.55556
147 1 Ar 7.55556 7.55556 11.3333
148 1 Ar 7.55556 7.55556 15.1111
149 1 Ar 7.55556 7.55556 18.8889
150 1 Ar 7.55556 7.55556 22.6667
151 1 Ar 7.55556 7.55556 26.4444
152 1 Ar 7.55556 11.3333 0
153 1 Ar 7.55556 11.3333 3.77778
154 1 Ar 7.55556 11.3333 7.55556
155 1 Ar 7.55556 11.3333 11.3333
156 1 Ar 7.55556 11.3333 15.1111
157 1 Ar 7.55556 11.3333 18.8889
158 1 Ar 7.55556 11.3333 22.6667
159 1 Ar 7.55556 11.3333 26.4444
160 1 Ar 7.55556 15.1111 0
161 1 Ar 7.55556 15.1111 3.77778
162 1 Ar 7.55556 15.1111 7.55556
163 1 Ar 7.55556 15.1111 11.3333
164 1 Ar 7.55556 15.1111 15.1111
165 1 Ar 7.55556 15.1111 18.8889
166 1 Ar 7.55556 15.1111 22.6667
167 1 Ar 7.55556 15.1111 26.4444
168 1 Ar 7.55556 18.8889 0
169 1 Ar 7.55556 18.8889 3.77778
170 1 Ar 7.55556 18.8889 7.55556
171 1 Ar 7.55556 18.8889 11.3333
172 1 Ar 7.55556 18.8889 15.1111
173 1 Ar 7.55556 18.8889 18.8889
174 1 Ar 7.55556 18.8889 22.6667
175 1 Ar 7.55556 18.8889 26.4444
176 1 Ar 7.55556 22.6667 0
177 1 Ar 7.55556 22.6667 3.77778
178 1 Ar 7.55556 22.6667 7.55556
179 1 Ar 7.55556 22.6667 11.3333
180 1 Ar 7.55556 22.6667 15.1111
181 1 Ar 7.55556 22.6667 18.8889
182 1 Ar 7.55556 22.6667 22.6667
183 1 Ar 7.55556 22.6667 26.4444
184 1 Ar 7.55556 26.4444 0
185 1 Ar 7.55556 26.4444 3.77778
186 1 Ar 7.55556 26.4444 7.55556
187 1 Ar 7.55556 26.4444 11.3333
188 1 Ar 7.55556 26.4444 15.1111
189 1 Ar 7.55556 26.4444 18.8889
190 1 Ar 7.55556 26.4444 22.6667
191 1 Ar 7.55556 26.4444 26.4444
192 1 Ar 11.3333 0 0
193 1 Ar 11.3333 0 3.77778
194 1 Ar 11.3333 0 7.55556
195 1 Ar 11.3333 0 11.3333
196 1 Ar 11.3333 0 15.1111
197 1 Ar 11.3333 0 18.8889
198 1 Ar 11.3333 0 22.6667
199 1 Ar 11.3333 0 26.4444
200 1 Ar 11.3333 3.77778 0
201 1 Ar 11.3333 3.77778 3.77778
202 1 Ar 11.3333 3.77778 7.55556
203 1 Ar 11.3333 3.77778 11.3333
204 1 Ar 11.3333 3.77778 15.1111
205 1 Ar 11.3333 3.77778 18.8889
206 1 Ar 11.3333 3.77778 22.6667
207 1 Ar 11.3333 3.77778 26.4444
208 1 Ar 11.3333 7.55556 0
209 1 Ar 11.3333 7.55556 3.77778
210 1 Ar 11.3333 7.55556 7.55556
211 1 Ar 11.3333 7.55556 11.3333
212 1 Ar 11.3333 7.55556 15.1111
213 1 Ar 11.3333 7.55556 18.8889
214 1 Ar 11.3333 7.55556 22.6667
215 1 Ar 11.3333 7.55556 26.4444
216 1 Ar 11.3333 11.3333 0
217 1 Ar 11.3333 11.3333 3.77778
218 1 Ar 11.3333 11.3333 7.55556
219 1 Ar 11.3333 11.3333 11.3333
220 1 Ar 11.3333 11.3333 15.1111
221 1 Ar 11.3333 11.3333 18.8889
222 1 Ar 11.3333 11.3333 22.6667
223 1 Ar 11.3333 11.3333 26.4444
224 1 Ar 11.3333 15.1111 0
225 1 Ar 11.3333 15.1111 3.77778
226 1 Ar 11.3333 15.1111 7.55556
227 1 Ar 11.3333 15.1111 11.3333
228 1 Ar 11.3333 15.1111 15.1111
229 1 Ar 11.3333 15.1111 18.8889
230 1 Ar 11.3333 15.1111 22.6667
231 1 Ar 11.3333 15.1111 26.4444
232 1 Ar 11.3333 18.8889 0
233 1 Ar 11.3333 18.8889 3.77778
234 1 Ar 11.3333 18.8889 7.55556
235 1 Ar 11.3333 18.8889 11.3333
236 1 Ar 11.3333 18.8889 15.1111
237 1 Ar 11.3333 18.8889 18.8889
238 1 Ar 11.3333 18.8889 22.6667
239 1 Ar 11.3333 18.8889 26.4444
240 1 Ar 11.3333 22.6667 0
241 1 Ar 11.3333 22.6667 3.77778
242 1 Ar 11.3333 22.6667 7.55556
243 1 Ar 11.3333 22.6667 11.3333
244 1 Ar 11.3333 22.6667 15.1111
245 1 Ar 11.3333 22.6667 18.8889
246 1 Ar 11.3333 22.6667 22.6667
247 1 Ar 11.3333 22.6667 26.4444
248 1 Ar 11.3333 26.4444 0
249 1 Ar 11.3333 26.4444 3.77778
250 1 Ar 11.3333 26.4444 7.55556
251 1 Ar 11.3333 26.4444 11.3333
252 1 Ar 11.3333 26.4444 15.1111
253 1 Ar 11.3333 26.4444 18.8889
254 1 Ar 11.3333 26.4444 22.6667
255 1 Ar 11.3333 26.4444 26.4444
256 1 Ar 15.1111 0 0
257 1 Ar 15.1111 0 3.77778
258 1 Ar 15.1111 0 7.55556
259 1 Ar 15.1111 0 11.3333
260 1 Ar 15.1111 0 15.1111
261 1 Ar 15.1111 0 18.8889
262 1 Ar 15.1111 0 22.6667
263 1 Ar 15.1111 0 26.4444
264 1 Ar 15.1111 3.77778 0
265 1 Ar 15.1111 3.77778 3.77778
266 1 Ar 15.1111 3.77778 7.55556
267 1 Ar 15.1111 3.77778 11.3333
268 1 Ar 15.1111 3.77778 15.1111
269 1 Ar 15.1111 3.77778 18.8889
270 1 Ar 15.1111 3.77778 22.6667
271 1 Ar 15.1111 3.77778 26.4444
272 1 Ar 15.1111 7.55556 0
273 1 Ar 15.1111 7.55556 3.77778
274 1 Ar 15.1111 7.55556 7.55556
275 1 Ar 15.1111 7.55556 11.3333
276 1 Ar 15.1111 7.55556 15.1111
277 1 Ar 15.1111 7.55556 18.8889
278 1 Ar 15.1111 7.55556 22.6667
279 1 Ar 15.1111 7.55556 26.4444
280 1 Ar 15.1111 11.3333 0
281 1 Ar 15.1111 11.3333 3.77778
282 1 Ar 15.1111 11.3333 7.55556
283 1 Ar 15.1111 11.3333 11.3333
284 1 Ar 15.1111 11.3333 15.1111
285 1 Ar 15.1111 11.3333 18.8889
286 1 Ar 15.1111 11.3333 22.6667
287 1 Ar 15.1111 11.3333 26.4444
288 1 Ar 15.1111 15.1111 0
289 1 Ar 15.1111 15.1111 3.77778
290 1 Ar 15.1111 15.1111 7.55556
291 1 Ar 15.1111 15.1111 11.3333
292 1 Ar 15.1111 15.1111 15.1111
293 1 Ar 15.1111 15.1111 18.8889
294 1 Ar 15.1111 15.1111 22.6667
295 1 Ar 15.1111 15.1111 26.4444
296 1 Ar 15.1111 18.8889 0
297 1 Ar 15.1111 18.8889 3.77778
298 1 Ar 15.1111 18.8889 7.55556
299 1 Ar 15.1111 18.8889 11.3333
300 1 Ar 15.1111 18.8889 15.1111
301 1 Ar 15.1111 18.8889 18.8889
302 1 Ar 15.1111 18.8889 22.6667
303 1 Ar 15.1111 18.8889 26.4444
304 1 Ar 15.1111 22.6667 0
305 1 Ar 15.1111 22.6667 3.77778
306 1 Ar 15.1111 22.6667 7.55556
307 1 Ar 15.1111 22.6667 11.3333
308 1 Ar 15.1111 22.6667 15.1111
309 1 Ar 15.1111 22.6667 18.8889
310 1 Ar 15.1111 22.6667 22.6667
311 1 Ar 15.1111 22.6667 26.4444
312 1 Ar 15.1111 26.4444 0
313 1 Ar 15.1111 26.4444 3.77778
314 1 Ar 15.1111 26.4444 7.55556
315 1 Ar 15.1111 26.4444 11.3333
316 1 Ar 15.1111 26.4444 15.1111
317 1 Ar 15.1111 26.4444 18.8889
318 1 Ar 15.1111 26.4444 22.6667
319 1 Ar 15.1111 26.4444 26.4444
320 1 Ar 18.8889 0 0
321 1 Ar 18.8889 0 3.77778
322 1 Ar 18.8889 0 7.55556
323 1 Ar 18.8889 0 11.3333
324 1 Ar 18.8889 0 15.1111
325 1 Ar 18.8889 0 18.8889
326 1 Ar 18.8889 0 22.6667
327 1 Ar 18.8889 0 26.4444
328 1 Ar 18.8889 3.77778 0
329 1 Ar 18.8889 3.77778 3.77778
330 1 Ar 18.8889 3.77778 7.55556
331 1 Ar 18.8889 3.77778 11.3333
332 1 Ar 18.8889 3.77778 15.1111
333 1 Ar 18.8889 3.77778 18.8889
334 1 Ar 18.8889 3.77778 22.6667
335 1 Ar 18.8889 3.77778 26.4444
336 1 Ar 18.8889 7.55556 0
337 1 Ar 18.8889 7.55556 3.77778
338 1 Ar 18.8889 7.55556 7.55556
339 1 Ar 18.8889 7.55556 11.3333
340 1 Ar 18.8889 7.55556 15.1111
341 1 Ar 18.8889 7.55556 18.8889
342 1 Ar 18.8889 7.55556 22.6667
343 1 Ar 18.8889 7.55556 26.4444
344 1 Ar 18.8889 11.3333 0
345 1 Ar 18.8889 11.3333 3.77778
346 1 Ar 18.8889 11.3333 7.55556
347 1 Ar 18.8889 11.3333 11.3333
348 1 Ar 18.8889 11.3333 15.1111
349 1 Ar 18.8889 11.3333 18.8889
350 1 Ar 18.8889 11.3333 22.6667
351 1 Ar 18.8889 11.3333 26.4444
352 1 Ar 18.8889 15.1111 0
353 1 Ar 18.8889 15.1111 3.77778
354 1 Ar 18.8889 15.1111 7.55556
355 1 Ar 18.8889 15.1111 11.3333
356 1 Ar 18.8889 15.1111 15.1111
357 1 Ar 18.8889 15.1111 18.8889
358 1 Ar 18.8889 15.1111 22.6667
359 1 Ar 18.8889 15.1111 26.4444
360 1 Ar 18.8889 18.8889 0
361 1 Ar 18.8889 18.8889 3.77778
362 1 Ar 18.8889 18.8889 7.55556
363 1 Ar 18.8889 18.8889 11.3333
364 1 Ar 18.8889 18.8889 15.1111
365 1 Ar 18.8889 18.8889 18.8889
366 1 Ar 18.8889 18.8889 22.6667
367 1 Ar 18.8889 18.8889 26.4444
368 1 Ar 18.8889 22.6667 0
369 1 Ar 18.8889 22.6667 3.77778
370 1 Ar 18.8889 22.6667 7.55556
371 1 Ar 18.8889 22.6667 11.3333
372 1 Ar 18.8889 22.6667 15.1111
373 1 Ar 18.8889 22.6667 18.8889
374 1 Ar 18.8889 22.6667 22.6667
375 1 Ar 18.8889 22.6667 26.4444
376 1 Ar 18.8889 26.4444 0
377 1 Ar 18.8889 26.4444 3.77778
378 1 Ar 18.8889 26.4444 7.55556
379 1 Ar 18.8889 26.4444 11.3333
380 1 Ar 18.8889 26.4444 15.1111
381 1 Ar 18.8889 26.4444 18.8889
382 1 Ar 18.8889 26.4444 22.6667
383 1 Ar 18.8889 26.4444 26.4444
384 1 Ar 22.6667 0 0
385 1 Ar 22.6667 0 3.77778
386 1 Ar 22.6667 0 7.55556
387 1 Ar 22.6667 0 11.3333
388 1 Ar 22.6667 0 15.1111
389 1 Ar 22.6667 0 18.8889
390 1 Ar 22.6667 0 22.6667
391 1 Ar 22.6667 0 26.4444
392 1 Ar 22.6667 3.77778 0
393 1 Ar 22.6667 3.77778 3.77778
394 1 Ar 22.6667 3.77778 7.55556
395 1 Ar 22.6667 3.77778 11.3333
396 1 Ar 22.6667 3.77778 15.1111
397 1 Ar 22.6667 3.77778 18.8889
398 1 Ar 22.6667 3.77778 22.6667
399 1 Ar 22.6667 3.77778 26.4444
400 1 Ar 22.6667 7.55556 0
401 1 Ar 22.6667 7.55556 3.77778
402 1 Ar 22.6667 7.55556 7.55556
403 1 Ar 22.6667 7.55556 11.3333
404 1 Ar 22.6667 7.55556 15.1111
405 1 Ar 22.6667 7.55556 18.8889
406 1 Ar 22.6667 7.55556 22.6667
407 1 Ar 22.6667 7.55556 26.4444
408 1 Ar 22.6667 11.3333 0
409 1 Ar 22.6667 11.3333 3.77778
410 1 Ar 22.6667 11.3333 7.55556
411 1 Ar 22.6667 11.3333 11.3333
412 1 Ar 22.6667 11.3333 15.1111
413 1 Ar 22.6667 11.3333 18.8889
414 1 Ar 22.6667 11.3333 22.6667
415 1 Ar 22.6667 11.3333 26.4444
416 1 Ar 22.6667 15.1111 0
417 1 Ar 22.6667 15.1111 3.77778
418 1 Ar 22.6667 15.1111 7.55556
419 1 Ar 22.6667 15.1111 11.3333
420 1 Ar 22.6667 15.1111 15.1111
421 1 Ar 22.6667 15.1111 18.8889
422 1 Ar 22.6667 15.1111 22.6667
423 1 Ar 22.6667 15.1111 26.4444
424 1 Ar 22.6667 18.8889 0
425 1 Ar 22.6667 18.8889 3.77778
426 1 Ar 22.6667 18.8889 7.55556
427 1 Ar 22.6667 18.8889 11.3333
428 1 Ar 22.6667 18.8889 15.1111
429 1 Ar 22.6667 18.8889 18.8889
430 1 Ar 22.6667 18.8889 22.6667
431 1 Ar 22.6667 18.8889 26.4444
432 1 Ar 22.6667 22.6667 0
433 1 Ar 22.6667 22.6667 3.77778
434 1 Ar 22.6667 22.6667 7.55556
435 1 Ar 22.6667 22.6667 11.3333
436 1 Ar 22.6667 22.6667 15.1111
437 1 Ar 22.6667 22.6667 18.8889
438 1 Ar 22.6667 22.6667 22.6667
439 1 Ar 22.6667 22.6667 26.4444
440 1 Ar 22.6667 26.4444 0
441 1 Ar 22.6667 26.4444 3.77778
442 1 Ar 22.6667 26.4444 7.55556
443 1 Ar 22.6667 26.4444 11.3333
444 1 Ar 22.6667 26.4444 15.1111
445 1 Ar 22.6667 26.4444 18.8889
446 1 Ar 22.6667 26.4444 22.6667
447 1 Ar 22.6667 26.4444 26.4444
448 1 Ar 26.4444 0 0
449 1 Ar 26.4444 0 3.77778
450 1 Ar 26.4444 0 7.55556
451 1 Ar 26.4444 0 11.3333
452 1 Ar 26.4444 0 15.1111
453 1 Ar 26.4444 0 18.8889
454 1 Ar 26.4444 0 22.6667
455 1 Ar 26.4444 0 26.4444
456 1 Ar 26.4444 3.77778 0
457 1 Ar 26.4444 3.77778 3.77778
458 1 Ar 26.4444 3.77778 7.55556
459 1 Ar 26.4444 3.77778 11.3333
460 1 Ar 26.4444 3.77778 15.1111
461 1 Ar 26.4444 3.77778 18.8889
462 1 Ar 26.4444 3.77778 22.6667
463 1 Ar 26.4444 3.77778 26.4444
464 1 Ar 26.4444 7.55556 0
465 1 Ar 26.4444 7.55556 3.77778
466 1 Ar 26.4444 7.55556 7.55556
467 1 Ar 26.4444 7.55556 11.3333
468 1 Ar 26.4444 7.55556 15.1111
469 1 Ar 26.4444 7.55556 18.8889
470 1 Ar 26.4444 7.55556 22.6667
471 1 Ar 26.4444 7.55556 26.4444
472 1 Ar 26.4444 11.3333 0
473 1 Ar 26.4444 11.3333 3.77778
474 1 Ar 26.4444 11.3333 7.55556
475 1 Ar 26.4444 11.3333 11.3333
476 1 Ar 26.4444 11.3333 15.1111
477 1 Ar 26.4444 11.3333 18.8889
478 1 Ar 26.4444 11.3333 22.6667
479 1 Ar 26.4444 11.3333 26.4444
480 1 Ar 26.4444 15.1111 0
481 1 Ar 26.4444 15.1111 3.77778
482 1 Ar 26.4444 15.1111 7.55556
483 1 Ar 26.4444 15.1111 11.3333
484 1 Ar 26.4444 15.1111 15.1111
485 1 Ar 26.4444 15.1111 18.8889
486 1 Ar 26.4444 15.1111 22.6667
487 1 Ar 26.4444 15.1111 26.4444
488 1 Ar 26.4444 18.8889 0
489 1 Ar 26.4444 18.8889 3.77778
490 1 Ar 26.4444 18.8889 7.55556
491 1 Ar 26.4444 18.8889 11.3333
492 1 Ar 26.4444 18.8889 15.1111
493 1 Ar 26.4444 18.8889 18.8889
494 1 Ar 26.4444 18.8889 22.6667
495 1 Ar 26.4444 18.8889 26.4444
496 1 Ar 26.4444 22.6667 0
497 1 Ar 26.4444 22.6667 3.77778
498 1 Ar 26.4444 22.6667 7.55556
499 1 Ar 26.4444 22.6667 11.3333
ITEM: TIMESTEP
19999
ITEM: NUMBER OF ATOMS
500
ITEM: BOX BOUNDS pp pp pp
0 34
0 34
0 34
ITEM: ATOMS id type element xu yu zu
0 1 Ar 31.5146 31.9535 30.9961
1 1 Ar 31.2213 2.33431 4.15087
2 1 Ar 0.95084 0.00814676 7.7572
3 1 Ar 33.3351 0.858202 12.613
4 1 Ar 1.92517 0.714151 16.7742
5 1 Ar 31.2343 2.36123 18.6704
6 1 Ar 1.20004 33.8681 20.9987
7 1 Ar 33.1113 33.0783 27.0038
8 1 Ar 0.12883 2.67374 32.2478
9 1 Ar 0.16574 4.7097 1.74699
10 1 Ar 0.166616 3.24737 6.77332
11 1 Ar 33.3307 4.43968 11.2121
12 1 Ar 33.9813 3.64606 14.7104
13 1 Ar 0.0404385 4.38305 18.9932
14 1 Ar 32.302 3.50378 22.1651
15 1 Ar 0.400223 4.75745 26.926
16 1 Ar 30.4588 7.35691 3.51923
17 1 Ar 0.289028 7.46866 5.20954
18 1 Ar 31.2561 9.35071 5.87157
19 1 Ar 33.5899 7.88762 11.0033
20 1 Ar 33.3164 7.16198 16.136
21 1 Ar 31.2961 8.75498 21.297
22 1 Ar 0.165949 6.75583 23.0936
23 1 Ar 0.232314 8.03579 26.2832
24 1 Ar 33.7632 11.2706 33.5219
25 1 Ar 33.5502 10.1897 3.03863
26 1 Ar 0.296303 11.0191 6.95816
27 1 Ar 0.590384 11.4489 10.7163
28 1 Ar 33.8663 10.671 14.3026
29 1 Ar 0.761928 10.5755 18.1424
30 1 Ar 0.230271 11.7474 22.0286
31 1 Ar 33.237 13.4554 28.4341
32 1 Ar 31.1836 16.6362 0.0262734
33 1 Ar 32.6321 14.9398 2.85804
34 1 Ar 0.509396 15.7822 7.4701
35 1 Ar 1.14542 15.3154 11.0687
36 1 Ar 33.8325 15.3377 15.3381
37 1 Ar 0.345382 13.8477 19.0631
38 1 Ar 0.395841 15.6884 22.8822
39 1 Ar 0.699656 12.8692 25.4032
40 1 Ar 0.353075 18.5585 32.4225
41 1 Ar 33.751 18.9566 2.12905
42 1 Ar 32.3642 18.2417 8.60973
43 1 Ar 0.0187617 18.4731 11.5408
44 1 Ar 1.00718 18.8937 15.6978
45 1 Ar 33.7357 17.6417 19.0472
46 1 Ar 33.2197 18.6207 22.6274
47 1 Ar 32.2943 18.2456 26.0921
48 1 Ar 1.83363 22.8089 31.4573
49 1 Ar 1.20233 23.7696 2.38632
50 1 Ar 33.4624 21.6326 5.38449
51 1 Ar 0.653427 21.6436 10.787
52 1 Ar 0.720574 22.1061 14.9565
53 1 Ar 32.7749 21.4908 19.0173
54 1 Ar 33.5582 23.0606 22.1358
55 1 Ar 0.563057 22.5953 25.911
56 1 Ar 32.9942 27.6532 31.8722
57 1 Ar 32.2295 27.464 3.64648
58 1 Ar 0.37337 26.9035 7.71582
59 1 Ar 1.26444 27.257 11.1708
60 1 Ar 0.672815 25.0922 16.9639
61 1 Ar 0.470707 27.9764 21.0358
62 1 Ar 33.7833 26.2203 24.5432
63 1 Ar 1.09985 28.9797 26.8805
64 1 Ar 6.01309 31.0797 0.283152
65 1 Ar 2.7058 0.47982 4.77963
66 1 Ar 4.77996 32.9744 7.08096
67 1 Ar 2.79259 33.9324 11.9602
68 1 Ar 5.39985 33.4284 14.7584
69 1 Ar 2.36128 31.4757 18.6653
70 1 Ar 4.56867 0.51217 21.6582
71 1 Ar 4.54883 0.133 26.3912
72 1 Ar 3.94854 2.5746 33.094
73 1 Ar 4.98497 4.38847 3.07821
74 1 Ar 4.19151 2.48765 7.63679
75 1 Ar 2.84151 3.59474 11.6591
76 1 Ar 3.88251 3.55483 15.0715
77 1 Ar 4.35822 3.21988 18.9077
78 1 Ar 1.81083 2.49552 22.7652
79 1 Ar 3.77697 3.62901 27.1671
80 1 Ar 3.11758 8.55507 1.23463
81 1 Ar 3.73362 7.37315 4.27522
82 1 Ar 4.6381 7.73144 7.82755
83 1 Ar 5.08022 6.78591 10.9678
84 1 Ar 3.13568 6.85419 14.2811
85 1 Ar 4.24858 7.49868 17.7959
86 1 Ar 3.23881 7.80403 21.5819
87 1 Ar 2.9659 6.93885 28.3903
88 1 Ar 4.02718 10.4843 32.0927
89 1 Ar 4.72556 12.8853 2.94655
90 1 Ar 4.14517 11.3259 7.55943
91 1 Ar 4.16418 10.52 11.5343
92 1 Ar 4.26329 11.75 15.3623
93 1 Ar 4.04512 11.7838 19.3054
94 1 Ar 5.07663 11.1134 23.0071
95 1 Ar 1.98258 10.56 27.6769
96 1 Ar 3.74598 15.1204 33.2218
97 1 Ar 3.57785 16.8284 3.05906
98 1 Ar 4.62518 15.0336 6.94319
99 1 Ar 4.86766 15.5585 10.576
100 1 Ar 3.21517 15.0325 14.1166
101 1 Ar 3.638 15.0736 18.0677
102 1 Ar 3.44973 16.509 21.6149
103 1 Ar 3.23556 15.7338 25.7844
104 1 Ar 3.84866 19.1153 0.212044
105 1 Ar 2.57999 20.2385 3.70643
106 1 Ar 4.94495 18.3745 7.39566
107 1 Ar 3.92934 18.4715 11.6212
108 1 Ar 4.27154 20.0217 14.676
109 1 Ar 3.03616 18.3768 18.7234
110 1 Ar 3.06379 19.7068 22.4983
111 1 Ar 2.19614 19.3575 25.7804
112 1 Ar 4.30791 23.5281 33.7097
113 1 Ar 4.8026 22.835 3.76829
114 1 Ar 2.77341 22.1436 8.10369
115 1 Ar 4.30328 21.863 11.0439
116 1 Ar 3.9305 23.3108 15.3027
117 1 Ar 2.85868 21.8171 18.919
118 1 Ar 3.80017 23.333 21.777
119 1 Ar 4.30494 22.3948 25.1334
120 1 Ar 1.79516 28.5738 1.83416
121 1 Ar 2.67076 25.7262 5.05396
122 1 Ar 5.77777 28.9051 8.53069
123 1 Ar 4.32446 25.2947 10.4278
124 1 Ar 3.83072 27.8491 13.7967
125 1 Ar 3.40453 26.4886 19.1897
126 1 Ar 3.90561 27.3125 23.393
127 1 Ar 3.29862 25.3731 29.3941
128 1 Ar 7.26929 1.63505 33.6912
129 1 Ar 6.84776 0.268881 3.07909
130 1 Ar 8.26875 0.79709 6.74008
131 1 Ar 7.76991 0.628347 11.3152
132 1 Ar 8.90596 1.35656 15.2544
133 1 Ar 6.60496 0.112126 17.9749
134 1 Ar 8.27744 0.736838 21.8471
135 1 Ar 7.83856 33.9 25.6796
136 1 Ar 9.23907 3.83147 31.3906
137 1 Ar 8.58302 4.06606 4.81624
138 1 Ar 7.49311 4.2448 8.68172
139 1 Ar 7.2857 4.55142 12.2882
140 1 Ar 7.59783 4.84427 16.055
141 1 Ar 7.97026 3.45423 19.8076
142 1 Ar 6.37056 3.43541 23.5496
143 1 Ar 6.97909 1.85849 28.6984
144 1 Ar 8.12403 6.45052 33.8799
145 1 Ar 7.47518 7.96679 3.33675
146 1 Ar 8.38415 6.98706 6.76778
147 1 Ar 8.49997 8.51103 10.0661
148 1 Ar 6.74339 8.12172 14.7309
149 1 Ar 7.65355 6.90414 18.9163
150 1 Ar 6.73899 7.79412 22.207
151 1 Ar 7.35117 6.92516 28.7203
152 1 Ar 7.90873 10.5168 0.155803
153 1 Ar 8.3132 12.294 3.64208
154 1 Ar 7.20143 10.1828 6.56087
155 1 Ar 7.55599 11.9859 11.1699
156 1 Ar 7.67844 11.386 15.0932
157 1 Ar 7.09778 12.3778 18.2045
158 1 Ar 8.56298 10.7424 20.9137
159 1 Ar 8.20806 10.0485 25.0369
160 1 Ar 7.47934 13.8008 0.421218
161 1 Ar 6.75179 15.8095 4.17097
162 1 Ar 7.64678 14.4231 8.51918
163 1 Ar 8.71801 15.5721 12.2298
164 1 Ar 6.83167 14.7515 15.5216
165 1 Ar 7.90952 15.9577 18.8746
166 1 Ar 6.35403 14.969 21.8989
167 1 Ar 7.75186 15.1001 26.5388
168 1 Ar 7.69793 18.8007 33.455
169 1 Ar 8.57809 18.5326 4.62797
170 1 Ar 8.05369 19.457 8.33436
171 1 Ar 7.26849 18.9242 12.0336
172 1 Ar 7.34922 18.4936 15.4874
173 1 Ar 6.44012 19.8042 19.5888
174 1 Ar 7.45835 17.9873 22.4931
175 1 Ar 6.2949 19.1428 25.5941
176 1 Ar 7.61838 22.1276 32.4475
177 1 Ar 6.99293 20.6952 2.11591
178 1 Ar 6.20589 24.0584 7.65807
179 1 Ar 7.96231 22.3208 11.2095
180 1 Ar 7.65766 21.9445 14.9456
181 1 Ar 6.15904 23.684 19.1985
182 1 Ar 7.88119 21.368 22.6871
183 1 Ar 5.79723 26.4308 26.7078
184 1 Ar 8.35909 25.3202 0.215359
185 1 Ar 6.45962 26.5664 4.44821
186 1 Ar 8.82233 27.3185 7.43133
187 1 Ar 7.54276 26.0952 11.8591
188 1 Ar 8.35916 25.7113 15.6714
189 1 Ar 7.94383 27.0715 19.5187
190 1 Ar 7.3953 25.1995 22.2488
191 1 Ar 6.67351 30.9596 24.0612
192 1 Ar 11.6186 33.2464 33.7144
193 1 Ar 12.3524 33.1844 3.25217
194 1 Ar 13.6073 33.1704 7.42418
195 1 Ar 11.3488 31.956 9.87438
196 1 Ar 12.5602 0.937653 14.6837
197 1 Ar 10.7988 1.09295 18.6421
198 1 Ar 7.95906 30.6291 20.7803
199 1 Ar 11.3079 0.637649 27.1231
200 1 Ar 10.2248 3.2928 1.19701
201 1 Ar 12.2193 4.99949 4.61777
202 1 Ar 11.3096 2.40702 7.26737
203 1 Ar 11.3559 2.71067 10.979
204 1 Ar 11.0866 4.65103 14.9882
205 1 Ar 11.8687 4.55942 19.3966
206 1 Ar 11.501 2.85432 22.5512
207 1 Ar 10.2746 4.70415 25.9155
208 1 Ar 12.5069 8.64188 33.8515
209 1 Ar 11.1378 8.11248 4.89217
210 1 Ar 11.7586 8.05978 8.87503
211 1 Ar 11.6396 6.28997 11.6635
212 1 Ar 10.9112 8.56302 15.2824
213 1 Ar 11.6586 8.23968 19.083
214 1 Ar 10.0598 6.56586 21.9362
215 1 Ar 11.3604 8.13841 26.4588
216 1 Ar 11.9915 11.6218 31.3339
217 1 Ar 11.8568 11.1899 3.27665
218 1 Ar 10.7132 11.0111 7.01875
219 1 Ar 11.9778 11.705 11.3792
220 1 Ar 12.3849 12.5404 14.6577
221 1 Ar 10.4404 11.405 17.5146
222 1 Ar 11.8548 10.2464 21.9472
223 1 Ar 8.86504 11.76 28.5552
224 1 Ar 11.2493 16.2356 33.2413
225 1 Ar 10.4041 15.3101 5.302
226 1 Ar 12.0504 14.4507 9.06913
227 1 Ar 12.3031 15.9882 12.4022
228 1 Ar 10.7296 15.6371 15.5319
229 1 Ar 11.772 14.6677 20.1213
230 1 Ar 10.2881 14.9711 23.3513
231 1 Ar 11.893 16.0741 26.6791
232 1 Ar 10.6154 19.6627 1.22669
233 1 Ar 12.2924 18.9789 4.33701
234 1 Ar 12.3094 17.8262 7.61984
235 1 Ar 11.29 18.9449 10.698
236 1 Ar 10.8498 20.1175 14.7407
237 1 Ar 10.3229 18.8765 20.4655
238 1 Ar 10.9324 18.4502 24.3339
239 1 Ar 11.1161 19.8679 29.1896
240 1 Ar 12.2069 24.5315 32.8946
241 1 Ar 11.1343 22.711 2.84888
242 1 Ar 10.2895 22.4733 7.6265
243 1 Ar 11.0377 22.5712 12.2283
244 1 Ar 12.2684 24.4795 15.9914
245 1 Ar 11.7477 21.5455 18.2445
246 1 Ar 11.8958 22.6878 21.9604
247 1 Ar 10.7101 21.6743 26.3438
248 1 Ar 12.3176 28.0573 0.549592
249 1 Ar 10.9983 26.0486 3.08398
250 1 Ar 12.4735 26.223 6.5066
251 1 Ar 11.0084 28.49 9.93142
252 1 Ar 11.4675 27.3622 14.1524
253 1 Ar 12.0161 26.5528 18.9973
254 1 Ar 11.2513 28.0207 22.2276
255 1 Ar 10.6061 29.1285 25.7439
256 1 Ar 15.1775 33.7191 32.3896
257 1 Ar 15.655 33.7497 3.30308
258 1 Ar 15.8414 1.85137 6.25219
259 1 Ar 14.7076 33.7766 11.4872
260 1 Ar 16.2171 1.50049 14.8521
261 1 Ar 15.6289 33.2926 18.2477
262 1 Ar 14.7666 31.85 21.6555
263 1 Ar 14.6221 0.547665 28.2852
264 1 Ar 12.4812 2.49733 31.4384
265 1 Ar 14.5721 3.28022 2.13126
266 1 Ar 14.3674 4.33618 8.25094
267 1 Ar 15.2158 3.65157 11.5891
268 1 Ar 14.2542 4.36978 14.709
269 1 Ar 15.2018 4.03273 18.3974
270 1 Ar 14.9459 2.97712 22.2709
271 1 Ar 15.819 3.97295 28.6833
272 1 Ar 14.4358 6.24706 31.8251
273 1 Ar 15.1185 6.75114 2.30716
274 1 Ar 15.2476 7.01735 6.28024
275 1 Ar 15.3986 7.61765 11.7792
276 1 Ar 14.4092 8.52814 15.2268
277 1 Ar 15.2965 8.31698 18.9407
278 1 Ar 16.0796 6.68463 22.4418
279 1 Ar 14.7038 5.9116 25.9821
280 1 Ar 15.8409 11.7073 0.928945
281 1 Ar 16.1077 10.2192 4.13216
282 1 Ar 14.5859 12.338 8.0205
283 1 Ar 15.1986 11.5696 11.2174
284 1 Ar 16.1279 12.058 14.6612
285 1 Ar 14.8237 12.3544 19.0931
286 1 Ar 14.6939 11.7183 23.0342
287 1 Ar 14.1265 8.77446 29.1391
288 1 Ar 16.1865 15.1709 0.616247
289 1 Ar 13.5579 14.798 2.78003
290 1 Ar 15.9903 16.389 7.23187
291 1 Ar 15.3705 14.7261 12.7209
292 1 Ar 14.9417 14.89 16.6712
293 1 Ar 15.7726 15.9115 20.344
294 1 Ar 13.7635 15.3067 23.8439
295 1 Ar 16.2524 15.4568 26.3395
296 1 Ar 14.3491 18.7134 33.7903
297 1 Ar 15.1716 17.8639 3.09451
298 1 Ar 14.9887 20.6469 8.5428
299 1 Ar 14.5739 19.8447 12.0482
300 1 Ar 13.9032 18.1786 14.9604
301 1 Ar 15.4245 18.6717 18.5036
302 1 Ar 14.5647 18.8736 23.4781
303 1 Ar 14.6985 18.7167 26.9272
304 1 Ar 14.2482 22.2356 0.0388133
305 1 Ar 15.5802 23.0352 3.94809
306 1 Ar 14.0833 23.4871 7.09226
307 1 Ar 14.3395 23.9203 10.8312
308 1 Ar 15.7564 23.1705 13.9801
309 1 Ar 15.752 23.104 17.6741
310 1 Ar 16.0417 21.8911 21.4277
311 1 Ar 14.1238 22.9679 26.5615
312 1 Ar 15.2857 25.5503 32.9823
313 1 Ar 14.1772 29.7362 6.47209
314 1 Ar 15.7214 26.4254 7.66012
315 1 Ar 15.3546 27.2692 11.2286
316 1 Ar 15.3919 26.603 15.1415
317 1 Ar 14.7474 29.9635 17.187
318 1 Ar 14.3519 24.8776 22.6745
319 1 Ar 15.4181 26.5937 26.5085
320 1 Ar 19.2579 32.6357 2.05156
321 1 Ar 20.0186 0.996238 4.8322
322 1 Ar 20.2974 33.6664 8.71063
323 1 Ar 18.5852 33.6 12.089
324 1 Ar 19.4885 0.331309 15.479
325 1 Ar 19.3458 0.298409 18.8839
326 1 Ar 18.1035 1.00914 22.9737
327 1 Ar 18.4486 0.228439 26.4083
328 1 Ar 18.7277 3.50322 33.8041
329 1 Ar 17.6605 4.3236 3.71022
330 1 Ar 18.6343 4.03882 7.35238
331 1 Ar 19.2158 3.12649 10.5461
332 1 Ar 18.6841 3.82592 15.1125
333 1 Ar 18.5944 4.49503 18.69
334 1 Ar 19.1182 4.10333 22.2255
335 1 Ar 19.7745 3.63911 27.1989
336 1 Ar 18.5894 8.13297 33.9665
337 1 Ar 19.183 7.96345 3.59309
338 1 Ar 18.9233 7.55638 6.90557
339 1 Ar 18.8149 6.52266 10.6311
340 1 Ar 18.8202 7.22495 14.4553
341 1 Ar 18.6115 8.42053 18.1408
342 1 Ar 19.421 7.47575 22.4937
343 1 Ar 18.2223 6.6068 27.7145
344 1 Ar 19.7254 11.1793 32.9069
345 1 Ar 20.3538 11.1944 2.93794
346 1 Ar 17.9752 11.2844 6.58576
347 1 Ar 18.4298 9.84265 12.2314
348 1 Ar 20.2772 11.4426 15.4096
349 1 Ar 19.6239 11.7333 19.5188
350 1 Ar 19.4046 11.8534 22.9059
351 1 Ar 19.0451 11.149 26.5708
352 1 Ar 19.3967 14.023 0.974078
353 1 Ar 18.4441 16.2599 3.83523
354 1 Ar 19.6421 14.6796 6.95183
355 1 Ar 19.2375 14.0403 10.6898
356 1 Ar 18.4387 15.5947 14.3935
357 1 Ar 18.0443 14.8982 17.8252
358 1 Ar 17.8853 14.7306 23.2285
359 1 Ar 19.8667 14.0356 28.2346
360 1 Ar 18.0884 18.4562 0.881373
361 1 Ar 18.1125 20.1146 5.48398
362 1 Ar 19.3204 18.1901 7.95258
363 1 Ar 18.8482 18.0802 11.8391
364 1 Ar 17.978 19.3016 15.783
365 1 Ar 19.8072 18.0308 18.6837
366 1 Ar 18.3796 19.1833 22.1063
367 1 Ar 18.4274 18.6476 27.9981
368 1 Ar 18.1793 21.5986 32.8034
369 1 Ar 18.8892 22.7174 2.07502
370 1 Ar 17.5166 22.8423 7.95099
371 1 Ar 18.1777 22.1223 11.2711
372 1 Ar 20.2133 21.1806 13.906
373 1 Ar 19.7073 21.7953 18.8391
374 1 Ar 19.7923 22.2637 22.5321
375 1 Ar 18.9149 21.4308 25.8066
376 1 Ar 19.194 26.3149 0.687382
377 1 Ar 18.1345 27.0035 4.10643
378 1 Ar 19.0012 27.9178 7.84902
379 1 Ar 18.4853 28.7409 12.1898
380 1 Ar 19.6427 25.1631 12.6107
381 1 Ar 20.0229 26 19.9248
382 1 Ar 17.9215 25.0932 22.7707
383 1 Ar 19.1765 26.8809 26.4795
384 1 Ar 22.2523 32.1061 33.8269
385 1 Ar 23.8996 0.0770805 5.09868
386 1 Ar 23.9283 0.313668 10.2002
387 1 Ar 21.5082 31.8144 11.2911
388 1 Ar 22.4545 33.3975 14.3218
389 1 Ar 22.934 1.20568 19.7279
390 1 Ar 22.1071 32.7454 22.5921
391 1 Ar 21.6441 33.2634 28.1331
392 1 Ar 22.1726 1.97899 1.09418
393 1 Ar 22.4376 4.22095 3.83945
394 1 Ar 22.9909 3.4314 7.82478
395 1 Ar 22.5384 2.79631 12.8165
396 1 Ar 22.3455 5.00379 15.9498
397 1 Ar 21.965 4.74911 19.8502
398 1 Ar 22.3288 3.24782 23.3504
399 1 Ar 23.5132 2.21189 27.2641
400 1 Ar 21.8457 6.5752 0.0140045
401 1 Ar 22.7201 8.55776 3.26032
402 1 Ar 22.8536 8.50651 7.71733
403 1 Ar 22.3333 6.31355 10.8704
404 1 Ar 22.141 8.53364 15.2909
405 1 Ar 23.0947 7.7327 18.642
406 1 Ar 24.3313 6.98244 22.3951
407 1 Ar 22.5704 7.23325 25.6894
408 1 Ar 23.3275 11.2095 32.9041
409 1 Ar 24.1785 12.4841 2.67768
410 1 Ar 22.5737 12.1194 6.46701
411 1 Ar 21.901 10.5623 10.9148
412 1 Ar 23.8267 11.7375 15.3334
413 1 Ar 22.9842 11.5262 18.5167
414 1 Ar 22.9237 10.6403 23.2445
415 1 Ar 22.3007 10.657 28.0993
416 1 Ar 23.7242 15.76 33.7619
417 1 Ar 22.6554 15.9051 3.31911
418 1 Ar 22.7794 15.8138 7.26712
419 1 Ar 23.0115 14.7979 11.2867
420 1 Ar 22.2835 15.4533 14.6248
421 1 Ar 22.9324 16.0094 17.9385
422 1 Ar 21.0882 14.6949 20.281
423 1 Ar 23.3128 13.3899 25.7853
424 1 Ar 21.6079 18.3409 32.7381
425 1 Ar 20.8919 19.4826 3.31995
426 1 Ar 23.52 19.1615 7.55551
427 1 Ar 22.3169 18.9038 11.6751
428 1 Ar 22.7204 18.9478 15.1966
429 1 Ar 22.8132 19.5394 18.9114
430 1 Ar 21.7017 18.1946 22.3067
431 1 Ar 22.2005 18.5978 26.6182
432 1 Ar 22.3787 23.3319 33.7541
433 1 Ar 22.4858 22.5745 3.28432
434 1 Ar 21.3641 22.3063 7.21084
435 1 Ar 22.5567 23.433 11.0233
436 1 Ar 23.5878 22.5474 14.9206
437 1 Ar 22.8854 22.7784 19.3173
438 1 Ar 23.2723 21.4663 23.8871
439 1 Ar 22.0674 23.3277 26.7907
440 1 Ar 22.75 26.7157 0.595227
441 1 Ar 21.5887 25.6426 5.46827
442 1 Ar 23.3448 27.2777 7.91889
443 1 Ar 22.4331 28.4543 11.8406
444 1 Ar 24.6721 25.7273 13.9261