ITEM: TIMESTEP
-1
ITEM: NUMBER OF ATOMS
500
ITEM: BOX BOUNDS pp pp pp
0 29.0696
0 29.0696
0 29.0696
ITEM: ATOMS id type element xu yu zu
0 1 Ar 0 0 0
1 1 Ar 0 0 3.22995
2 1 Ar 0 0 6.45991
3 1 Ar 0 0 9.68986
4 1 Ar 0 0 12.9198
5 1 Ar 0 0 16.1498
6 1 Ar 0 0 19.3797
7 1 Ar 0 0 22.6097
8 1 Ar 0 3.22995 0
9 1 Ar 0 3.22995 3.22995
10 1 Ar 0 3.22995 6.45991
11 1 Ar 0 3.22995 9.68986
12 1 Ar 0 3.22995 12.9198
13 1 Ar 0 3.22995 16.1498
14 1 Ar 0 3.22995 19.3797
15 1 Ar 0 3.22995 22.6097
16 1 Ar 0 6.45991 0
17 1 Ar 0 6.45991 3.22995
18 1 Ar 0 6.45991 6.45991
19 1 Ar 0 6.45991 9.68986
20 1 Ar 0 6.45991 12.9198
21 1 Ar 0 6.45991 16.1498
22 1 Ar 0 6.45991 19.3797
23 1 Ar 0 6.45991 22.6097
24 1 Ar 0 9.68986 0
25 1 Ar 0 9.68986 3.22995
26 1 Ar 0 9.68986 6.45991
27 1 Ar 0 9.68986 9.68986
28 1 Ar 0 9.68986 12.9198
29 1 Ar 0 9.68986 16.1498
30 1 Ar 0 9.68986 19.3797
31 1 Ar 0 9.68986 22.6097
32 1 Ar 0 12.9198 0
33 1 Ar 0 12.9198 3.22995
34 1 Ar 0 12.9198 6.45991
35 1 Ar 0 12.9198 9.68986
36 1 Ar 0 12.9198 12.9198
37 1 Ar 0 12.9198 16.1498
38 1 Ar 0 12.9198 19.3797
39 1 Ar 0 12.9198 22.6097
40 1 Ar 0 16.1498 0
41 1 Ar 0 16.1498 3.22995
42 1 Ar 0 16.1498 6.45991
43 1 Ar 0 16.1498 9.68986
44 1 Ar 0 16.1498 12.9198
45 1 Ar 0 16.1498 16.1498
46 1 Ar 0 16.1498 19.3797
47 1 Ar 0 16.1498 22.6097
48 1 Ar 0 19.3797 0
49 1 Ar 0 19.3797 3.22995
50 1 Ar 0 19.3797 6.45991
51 1 Ar 0 19.3797 9.68986
52 1 Ar 0 19.3797 12.9198
53 1 Ar 0 19.3797 16.1498
54 1 Ar 0 19.3797 19.3797
55 1 Ar 0 19.3797 22.6097
56 1 Ar 0 22.6097 0
57 1 Ar 0 22.6097 3.22995
58 1 Ar 0 22.6097 6.45991
59 1 Ar 0 22.6097 9.68986
60 1 Ar 0 22.6097 12.9198
61 1 Ar 0 22.6097 16.1498
62 1 Ar 0 22.6097 19.3797
63 1 Ar 0 22.6097 22.6097
64 1 Ar 3.22995 0 0
65 1 Ar 3.22995 0 3.22995
66 1 Ar 3.22995 0 6.45991
67 1 Ar 3.22995 0 9.68986
68 1 Ar 3.22995 0 12.9198
69 1 Ar 3.22995 0 16.1498
70 1 Ar 3.22995 0 19.3797
71 1 Ar 3.22995 0 22.6097
72 1 Ar 3.22995 3.22995 0
73 1 Ar 3.22995 3.22995 3.22995
74 1 Ar 3.22995 3.22995 6.45991
75 1 Ar 3.22995 3.22995 9.68986
76 1 Ar 3.22995 3.22995 12.9198
77 1 Ar 3.22995 3.22995 16.1498
78 1 Ar 3.22995 3.22995 19.3797
79 1 Ar 3.22995 3.22995 22.6097
80 1 Ar 3.22995 6.45991 0
81 1 Ar 3.22995 6.45991 3.22995
82 1 Ar 3.22995 6.45991 6.45991
83 1 Ar 3.22995 6.45991 9.68986
84 1 Ar 3.22995 6.45991 12.9198
85 1 Ar 3.22995 6.45991 16.1498
86 1 Ar 3.22995 6.45991 19.3797
87 1 Ar 3.22995 6.45991 22.6097
88 1 Ar 3.22995 9.68986 0
89 1 Ar 3.22995 9.68986 3.22995
90 1 Ar 3.22995 9.68986 6.45991
91 1 Ar 3.22995 9.68986 9.68986
92 1 Ar 3.22995 9.68986 12.9198
93 1 Ar 3.22995 9.68986 16.1498
94 1 Ar 3.22995 9.68986 19.3797
95 1 Ar 3.22995 9.68986 22.6097
96 1 Ar 3.22995 12.9198 0
97 1 Ar 3.22995 12.9198 3.22995
98 1 Ar 3.22995 12.9198 6.45991
99 1 Ar 3.22995 12.9198 9.68986
100 1 Ar 3.22995 12.9198 12.9198
101 1 Ar 3.22995 12.9198 16.1498
102 1 Ar 3.22995 12.9198 19.3797
103 1 Ar 3.22995 12.9198 22.6097
104 1 Ar 3.22995 16.1498 0
105 1 Ar 3.22995 16.1498 3.22995
106 1 Ar 3.22995 16.1498 6.45991
107 1 Ar 3.22995 16.1498 9.68986
108 1 Ar 3.22995 16.1498 12.9198
109 1 Ar 3.22995 16.1498 16.1498
110 1 Ar 3.22995 16.1498 19.3797
111 1 Ar 3.22995 16.1498 22.6097
112 1 Ar 3.22995 19.3797 0
113 1 Ar 3.22995 19.3797 3.22995
114 1 Ar 3.22995 19.3797 6.45991
115 1 Ar 3.22995 19.3797 9.68986
116 1 Ar 3.22995 19.3797 12.9198
117 1 Ar 3.22995 19.3797 16.1498
118 1 Ar 3.22995 19.3797 19.3797
119 1 Ar 3.22995 19.3797 22.6097
120 1 Ar 3.22995 22.6097 0
121 1 Ar 3.22995 22.6097 3.22995
122 1 Ar 3.22995 22.6097 6.45991
123 1 Ar 3.22995 22.6097 9.68986
124 1 Ar 3.22995 22.6097 12.9198
125 1 Ar 3.22995 22.6097 16.1498
126 1 Ar 3.22995 22.6097 19.3797
127 1 Ar 3.22995 22.6097 22.6097
128 1 Ar 6.45991 0 0
129 1 Ar 6.45991 0 3.22995
130 1 Ar 6.45991 0 6.45991
131 1 Ar 6.45991 0 9.68986
132 1 Ar 6.45991 0 12.9198
133 1 Ar 6.45991 0 16.1498
134 1 Ar 6.45991 0 19.3797
135 1 Ar 6.45991 0 22.6097
136 1 Ar 6.45991 3.22995 0
137 1 Ar 6.45991 3.22995 3.22995
138 1 Ar 6.45991 3.22995 6.45991
139 1 Ar 6.45991 3.22995 9.68986
140 1 Ar 6.45991 3.22995 12.9198
141 1 Ar 6.45991 3.22995 16.1498
142 1 Ar 6.45991 3.22995 19.3797
143 1 Ar 6.45991 3.22995 22.6097
144 1 Ar 6.45991 6.45991 0
145 1 Ar 6.45991 6.45991 3.22995
146 1 Ar 6.45991 6.45991 6.45991
147 1 Ar 6.45991 6.45991 9.68986
148 1 Ar 6.45991 6.45991 12.9198
149 1 Ar 6.45991 6.45991 16.1498
150 1 Ar 6.45991 6.45991 19.3797
151 1 Ar 6.45991 6.45991 22.6097
152 1 Ar 6.45991 9.68986 0
153 1 Ar 6.45991 9.68986 3.22995
154 1 Ar 6.45991 9.68986 6.45991
155 1 Ar 6.45991 9.68986 9.68986
156 1 Ar 6.45991 9.68986 12.9198
157 1 Ar 6.45991 9.68986 16.1498
158 1 Ar 6.45991 9.68986 19.3797
159 1 Ar 6.45991 9.68986 22.6097
160 1 Ar 6.45991 12.9198 0
161 1 Ar 6.45991 12.9198 3.22995
162 1 Ar 6.45991 12.9198 6.45991
163 1 Ar 6.45991 12.9198 9.68986
164 1 Ar 6.45991 12.9198 12.9198
165 1 Ar 6.45991 12.9198 16.1498
166 1 Ar 6.45991 12.9198 19.3797
167 1 Ar 6.45991 12.9198 22.6097
168 1 Ar 6.45991 16.1498 0
169 1 Ar 6.45991 16.1498 3.22995
170 1 Ar 6.45991 16.1498 6.45991
171 1 Ar 6.45991 16.1498 9.68986
172 1 Ar 6.45991 16.1498 12.9198
173 1 Ar 6.45991 16.1498 16.1498
174 1 Ar 6.45991 16.1498 19.3797
175 1 Ar 6.45991 16.1498 22.6097
176 1 Ar 6.45991 19.3797 0
177 1 Ar 6.45991 19.3797 3.22995
178 1 Ar 6.45991 19.3797 6.45991
179 1 Ar 6.45991 19.3797 9.68986
180 1 Ar 6.45991 19.3797 12.9198
181 1 Ar 6.45991 19.3797 16.1498
182 1 Ar 6.45991 19.3797 19.3797
183 1 Ar 6.45991 19.3797 22.6097
184 1 Ar 6.45991 22.6097 0
185 1 Ar 6.45991 22.6097 3.22995
186 1 Ar 6.45991 22.6097 6.45991
187 1 Ar 6.45991 22.6097 9.68986
188 1 Ar 6.45991 22.6097 12.9198
189 1 Ar 6.45991 22.6097 16.1498
190 1 Ar 6.45991 22.6097 19.3797
191 1 Ar 6.45991 22.6097 22.6097
192 1 Ar 9.68986 0 0
193 1 Ar 9.68986 0 3.22995
194 1 Ar 9.68986 0 6.45991
195 1 Ar 9.68986 0 9.68986
196 1 Ar 9.68986 0 12.9198
197 1 Ar 9.68986 0 16.1498
198 1 Ar 9.68986 0 19.3797
199 1 Ar 9.68986 0 22.6097
200 1 Ar 9.68986 3.22995 0
201 1 Ar 9.68986 3.22995 3.22995
202 1 Ar 9.68986 3.22995 6.45991
203 1 Ar 9.68986 3.22995 9.68986
204 1 Ar 9.68986 3.22995 12.9198
205 1 Ar 9.68986 3.22995 16.1498
206 1 Ar 9.68986 3.22995 19.3797
207 1 Ar 9.68986 3.22995 22.6097
208 1 Ar 9.68986 6.45991 0
209 1 Ar 9.68986 6.45991 3.22995
210 1 Ar 9.68986 6.45991 6.45991
211 1 Ar 9.68986 6.45991 9.68986
212 1 Ar 9.68986 6.45991 12.9198
213 1 Ar 9.68986 6.45991 16.1498
214 1 Ar 9.68986 6.45991 19.3797
215 1 Ar 9.68986 6.45991 22.6097
216 1 Ar 9.68986 9.68986 0
217 1 Ar 9.68986 9.68986 3.22995
218 1 Ar 9.68986 9.68986 6.45991
219 1 Ar 9.68986 9.68986 9.68986
220 1 Ar 9.68986 9.68986 12.9198
221 1 Ar 9.68986 9.68986 16.1498
222 1 Ar 9.68986 9.68986 19.3797
223 1 Ar 9.68986 9.68986 22.6097
224 1 Ar 9.68986 12.9198 0
225 1 Ar 9.68986 12.9198 3.22995
226 1 Ar 9.68986 12.9198 6.45991
227 1 Ar 9.68986 12.9198 9.68986
228 1 Ar 9.68986 12.9198 12.9198
229 1 Ar 9.68986 12.9198 16.1498
230 1 Ar 9.68986 12.9198 19.3797
231 1 Ar 9.68986 12.9198 22.6097
232 1 Ar 9.68986 16.1498 0
233 1 Ar 9.68986 16.1498 3.22995
234 1 Ar 9.68986 16.1498 6.45991
235 1 Ar 9.68986 16.1498 9.68986
236 1 Ar 9.68986 16.1498 12.9198
237 1 Ar 9.68986 16.1498 16.1498
238 1 Ar 9.68986 16.1498 19.3797
239 1 Ar 9.68986 16.1498 22.6097
240 1 Ar 9.68986 19.3797 0
241 1 Ar 9.68986 19.3797 3.22995
242 1 Ar 9.68986 19.3797 6.45991
243 1 Ar 9.68986 19.3797 9.68986
244 1 Ar 9.68986 19.3797 12.9198
245 1 Ar 9.68986 19.3797 16.1498
246 1 Ar 9.68986 19.3797 19.3797
247 1 Ar 9.68986 19.3797 22.6097
248 1 Ar 9.68986 22.6097 0
249 1 Ar 9.68986 22.6097 3.22995
250 1 Ar 9.68986 22.6097 6.45991
251 1 Ar 9.68986 22.6097 9.68986
252 1 Ar 9.68986 22.6097 12.9198
253 1 Ar 9.68986 22.6097 16.1498
254 1 Ar 9.68986 22.6097 19.3797
255 1 Ar 9.68986 22.6097 22.6097
256 1 Ar 12.9198 0 0
257 1 Ar 12.9198 0 3.22995
258 1 Ar 12.9198 0 6.45991
259 1 Ar 12.9198 0 9.68986
260 1 Ar 12.9198 0 12.9198
261 1 Ar 12.9198 0 16.1498
262 1 Ar 12.9198 0 19.3797
263 1 Ar 12.9198 0 22.6097
264 1 Ar 12.9198 3.22995 0
265 1 Ar 12.9198 3.22995 3.22995
266 1 Ar 12.9198 3.22995 6.45991
267 1 Ar 12.9198 3.22995 9.68986
268 1 Ar 12.9198 3.22995 12.9198
269 1 Ar 12.9198 3.22995 16.1498
270 1 Ar 12.9198 3.22995 19.3797
271 1 Ar 12.9198 3.22995 22.6097
272 1 Ar 12.9198 6.45991 0
273 1 Ar 12.9198 6.45991 3.22995
274 1 Ar 12.9198 6.45991 6.45991
275 1 Ar 12.9198 6.45991 9.68986
276 1 Ar 12.9198 6.45991 12.9198
277 1 Ar 12.9198 6.45991 16.1498
278 1 Ar 12.9198 6.45991 19.3797
279 1 Ar 12.9198 6.45991 22.6097
280 1 Ar 12.9198 9.68986 0
281 1 Ar 12.9198 9.68986 3.22995
282 1 Ar 12.9198 9.68986 6.45991
283 1 Ar 12.9198 9.68986 9.68986
284 1 Ar 12.9198 9.68986 12.9198
285 1 Ar 12.9198 9.68986 16.1498
286 1 Ar 12.9198 9.68986 19.3797
287 1 Ar 12.9198 9.68986 22.6097
288 1 Ar 12.9198 12.9198 0
289 1 Ar 12.9198 12.9198 3.22995
290 1 Ar 12.9198 12.9198 6.45991
291 1 Ar 12.9198 12.9198 9.68986
292 1 Ar 12.9198 12.9198 12.9198
293 1 Ar 12.9198 12.9198 16.1498
294 1 Ar 12.9198 12.9198 19.3797
295 1 Ar 12.9198 12.9198 22.6097
296 1 Ar 12.9198 16.1498 0
297 1 Ar 12.9198 16.1498 3.22995
298 1 Ar 12.9198 16.1498 6.45991
299 1 Ar 12.9198 16.1498 9.68986
300 1 Ar 12.9198 16.1498 12.9198
301 1 Ar 12.9198 16.1498 16.1498
302 1 Ar 12.9198 16.1498 19.3797
303 1 Ar 12.9198 16.1498 22.6097
304 1 Ar 12.9198 19.3797 0
305 1 Ar 12.9198 19.3797 3.22995
306 1 Ar 12.9198 19.3797 6.45991
307 1 Ar 12.9198 19.3797 9.68986
308 1 Ar 12.9198 19.3797 12.9198
309 1 Ar 12.9198 19.3797 16.1498
310 1 Ar 12.9198 19.3797 19.3797
311 1 Ar 12.9198 19.3797 22.6097
312 1 Ar 12.9198 22.6097 0
313 1 Ar 12.9198 22.6097 3.22995
314 1 Ar 12.9198 22.6097 6.45991
315 1 Ar 12.9198 22.6097 9.68986
316 1 Ar 12.9198 22.6097 12.9198
317 1 Ar 12.9198 22.6097 16.1498
318 1 Ar 12.9198 22.6097 19.3797
319 1 Ar 12.9198 22.6097 22.6097
320 1 Ar 16.1498 0 0
321 1 Ar 16.1498 0 3.22995
322 1 Ar 16.1498 0 6.45991
323 1 Ar 16.1498 0 9.68986
324 1 Ar 16.1498 0 12.9198
325 1 Ar 16.1498 0 16.1498
326 1 Ar 16.1498 0 19.3797
327 1 Ar 16.1498 0 22.6097
328 1 Ar 16.1498 3.22995 0
329 1 Ar 16.1498 3.22995 3.22995
330 1 Ar 16.1498 3.22995 6.45991
331 1 Ar 16.1498 3.22995 9.68986
332 1 Ar 16.1498 3.22995 12.9198
333 1 Ar 16.1498 3.22995 16.1498
334 1 Ar 16.1498 3.22995 19.3797
335 1 Ar 16.1498 3.22995 22.6097
336 1 Ar 16.1498 6.45991 0
337 1 Ar 16.1498 6.45991 3.22995
338 1 Ar 16.1498 6.45991 6.45991
339 1 Ar 16.1498 6.45991 9.68986
340 1 Ar 16.1498 6.45991 12.9198
341 1 Ar 16.1498 6.45991 16.1498
342 1 Ar 16.1498 6.45991 19.3797
343 1 Ar 16.1498 6.45991 22.6097
344 1 Ar 16.1498 9.68986 0
345 1 Ar 16.1498 9.68986 3.22995
346 1 Ar 16.1498 9.68986 6.45991
347 1 Ar 16.1498 9.68986 9.68986
348 1 Ar 16.1498 9.68986 12.9198
349 1 Ar 16.1498 9.68986 16.1498
350 1 Ar 16.1498 9.68986 19.3797
351 1 Ar 16.1498 9.68986 22.6097
352 1 Ar 16.1498 12.9198 0
353 1 Ar 16.1498 12.9198 3.22995
354 1 Ar 16.1498 12.9198 6.45991
355 1 Ar 16.1498 12.9198 9.68986
356 1 Ar 16.1498 12.9198 12.9198
357 1 Ar 16.1498 12.9198 16.1498
358 1 Ar 16.1498 12.9198 19.3797
359 1 Ar 16.1498 12.9198 22.6097
360 1 Ar 16.1498 16.1498 0
361 1 Ar 16.1498 16.1498 3.22995
362 1 Ar 16.1498 16.1498 6.45991
363 1 Ar 16.1498 16.1498 9.68986
364 1 Ar 16.1498 16.1498 12.9198
365 1 Ar 16.1498 16.1498 16.1498
366 1 Ar 16.1498 16.1498 19.3797
367 1 Ar 16.1498 16.1498 22.6097
368 1 Ar 16.1498 19.3797 0
369 1 Ar 16.1498 19.3797 3.22995
370 1 Ar 16.1498 19.3797 6.45991
371 1 Ar 16.1498 19.3797 9.68986
372 1 Ar 16.1498 19.3797 12.9198
373 1 Ar 16.1498 19.3797 16.1498
374 1 Ar 16.1498 19.3797 19.3797
375 1 Ar 16.1498 19.3797 22.6097
376 1 Ar 16.1498 22.6097 0
377 1 Ar 16.1498 22.6097 3.22995
378 1 Ar 16.1498 22.6097 6.45991
379 1 Ar 16.1498 22.6097 9.68986
380 1 Ar 16.1498 22.6097 12.9198
381 1 Ar 16.1498 22.6097 16.1498
382 1 Ar 16.1498 22.6097 19.3797
383 1 Ar 16.1498 22.6097 22.6097
384 1 Ar 19.3797 0 0
385 1 Ar 19.3797 0 3.22995
386 1 Ar 19.3797 0 6.45991
387 1 Ar 19.3797 0 9.68986
388 1 Ar 19.3797 0 12.9198
389 1 Ar 19.3797 0 16.1498
390 1 Ar 19.3797 0 19.3797
391 1 Ar 19.3797 0 22.6097
392 1 Ar 19.3797 3.22995 0
393 1 Ar 19.3797 3.22995 3.22995
394 1 Ar 19.3797 3.22995 6.45991
395 1 Ar 19.3797 3.22995 9.68986
396 1 Ar 19.3797 3.22995 12.9198
397 1 Ar 19.3797 3.22995 16.1498
398 1 Ar 19.3797 3.22995 19.3797
399 1 Ar 19.3797 3.22995 22.6097
400 1 Ar 19.3797 6.45991 0
401 1 Ar 19.3797 6.45991 3.22995
402 1 Ar 19.3797 6.45991 6.45991
403 1 Ar 19.3797 6.45991 9.68986
404 1 Ar 19.3797 6.45991 12.9198
405 1 Ar 19.3797 6.45991 16.1498
406 1 Ar 19.3797 6.45991 19.3797
407 1 Ar 19.3797 6.45991 22.6097
408 1 Ar 19.3797 9.68986 0
409 1 Ar 19.3797 9.68986 3.22995
410 1 Ar 19.3797 9.68986 6.45991
411 1 Ar 19.3797 9.68986 9.68986
412 1 Ar 19.3797 9.68986 12.9198
413 1 Ar 19.3797 9.68986 16.1498
414 1 Ar 19.3797 9.68986 19.3797
415 1 Ar 19.3797 9.68986 22.6097
416 1 Ar 19.3797 12.9198 0
417 1 Ar 19.3797 12.9198 3.22995
418 1 Ar 19.3797 12.9198 6.45991
419 1 Ar 19.3797 12.9198 9.68986
420 1 Ar 19.3797 12.9198 12.9198
421 1 Ar 19.3797 12.9198 16.1498
422 1 Ar 19.3797 12.9198 19.3797
423 1 Ar 19.3797 12.9198 22.6097
424 1 Ar 19.3797 16.1498 0
425 1 Ar 19.3797 16.1498 3.22995
426 1 Ar 19.3797 16.1498 6.45991
427 1 Ar 19.3797 16.1498 9.68986
428 1 Ar 19.3797 16.1498 12.9198
429 1 Ar 19.3797 16.1498 16.1498
430 1 Ar 19.3797 16.1498 19.3797
431 1 Ar 19.3797 16.1498 22.6097
432 1 Ar 19.3797 19.3797 0
433 1 Ar 19.3797 19.3797 3.22995
434 1 Ar 19.3797 19.3797 6.45991
435 1 Ar 19.3797 19.3797 9.68986
436 1 Ar 19.3797 19.3797 12.9198
437 1 Ar 19.3797 19.3797 16.1498
438 1 Ar 19.3797 19.3797 19.3797
439 1 Ar 19.3797 19.3797 22.6097
440 1 Ar 19.3797 22.6097 0
441 1 Ar 19.3797 22.6097 3.22995
442 1 Ar 19.3797 22.6097 6.45991
443 1 Ar 19.3797 22.6097 9.68986
444 1 Ar 19.3797 22.6097 12.9198
445 1 Ar 19.3797 22.6097 16.1498
446 1 Ar 19.3797 22.6097 19.3797
447 1 Ar 19.3797 22.6097 22.6097
448 1 Ar 22.6097 0 0
449 1 Ar 22.6097 0 3.22995
450 1 Ar 22.6097 0 6.45991
451 1 Ar 22.6097 0 9.68986
452 1 Ar 22.6097 0 12.9198
453 1 Ar 22.6097 0 16.1498
454 1 Ar 22.6097 0 19.3797
455 1 Ar 22.6097 0 22.6097
456 1 Ar 22.6097 3.22995 0
457 1 Ar 22.6097 3.22995 3.22995
458 1 Ar 22.6097 3.22995 6.45991
459 1 Ar 22.6097 3.22995 9.68986
460 1 Ar 22.6097 3.22995 12.9198
461 1 Ar 22.6097 3.22995 16.1498
462 1 Ar 22.6097 3.22995 19.3797
463 1 Ar 22.6097 3.22995 22.6097
464 1 Ar 22.6097 6.45991 0
465 1 Ar 22.6097 6.45991 3.22995
466 1 Ar 22.6097 6.45991 6.45991
467 1 Ar 22.6097 6.45991 9.68986
468 1 Ar 22.6097 6.45991 12.9198
469 1 Ar 22.6097 6.45991 16.1498
470 1 Ar 22.6097 6.45991 19.3797
471 1 Ar 22.6097 6.45991 22.6097
472 1 Ar 22.6097 9.68986 0
473 1 Ar 22.6097 9.68986 3.22995
474 1 Ar 22.6097 9.68986 6.45991
475 1 Ar 22.6097 9.68986 9.68986
476 1 Ar 22.6097 9.68986 12.9198
477 1 Ar 22.6097 9.68986 16.1498
478 1 Ar 22.6097 9.68986 19.3797
479 1 Ar 22.6097 9.68986 22.6097
480 1 Ar 22.6097 12.9198 0
481 1 Ar 22.6097 12.9198 3.22995
482 1 Ar 22.6097 12.9198 6.45991
483 1 Ar 22.6097 12.9198 9.68986
484 1 Ar 22.6097 12.9198 12.9198
485 1 Ar 22.6097 12.9198 16.1498
486 1 Ar 22.6097 12.9198 19.3797
487 1 Ar 22.6097 12.9198 22.6097
488 1 Ar 22.6097 16.1498 0
489 1 Ar 22.6097 16.1498 3.22995
490 1 Ar 22.6097 16.1498 6.45991
491 1 Ar 22.6097 16.1498 9.68986
492 1 Ar 22.6097 16.1498 12.9198
493 1 Ar 22.6097 16.1498 16.1498
494 1 Ar 22.6097 16.1498 19.3797
495 1 Ar 22.6097 16.1498 22.6097
496 1 Ar 22.6097 19.3797 0
497 1 Ar 22.6097 19.3797 3.22995
498 1 Ar 22.6097 19.3797 6.45991
499 1 Ar 22.6097 19.3797 9.68986
ITEM: TIMESTEP
19999
ITEM: NUMBER OF ATOMS
500
ITEM: BOX BOUNDS pp pp pp
0 29.0696
0 29.0696
0 29.0696
ITEM: ATOMS id type element xu yu zu
0 1 Ar 28.6094 28.5716 27.764
1 1 Ar 28.3125 28.3974 2.18957
2 1 Ar 0.0201286 0.168598 6.48269
3 1 Ar 28.2248 28.6381 9.78706
4 1 Ar 0.901255 29.0479 12.7772
5 1 Ar 27.2473 28.4759 15.7487
6 1 Ar 28.1439 27.9795 19.1965
7 1 Ar 28.5317 27.9885 23.4987
8 1 Ar 26.2452 2.61843 0.544653
9 1 Ar 28.8266 2.43728 3.83168
10 1 Ar 27.088 2.88258 6.78449
11 1 Ar 0.00218943 2.89524 9.67409
12 1 Ar 0.144751 3.6623 13.0841
13 1 Ar 27.8911 3.16404 16.2905
14 1 Ar 28.3544 2.58142 19.6673
15 1 Ar 27.7661 2.91125 22.9491
16 1 Ar 28.4538 5.958 28.214
17 1 Ar 28.4298 5.70206 2.80783
18 1 Ar 27.982 6.76758 6.32301
19 1 Ar 27.8078 5.99293 9.65545
20 1 Ar 27.5262 6.63137 13.0996
21 1 Ar 27.7899 6.35926 16.443
22 1 Ar 28.3664 6.27099 19.7175
23 1 Ar 28.7872 6.31582 23.4084
24 1 Ar 27.6632 9.96582 28.6172
25 1 Ar 28.1891 9.30525 2.81487
26 1 Ar 28.8224 10.0842 6.5829
27 1 Ar 28.6321 9.56763 9.86523
28 1 Ar 27.9119 9.74543 13.4343
29 1 Ar 28.8431 9.6613 16.6379
30 1 Ar 28.3895 9.5602 20.2851
31 1 Ar 28.661 10.2076 25.1126
32 1 Ar 28.9259 13.1729 27.1787
33 1 Ar 28.8393 12.37 2.7032
34 1 Ar 29.0428 13.2182 6.17572
35 1 Ar 28.3996 13.3311 9.59163
36 1 Ar 0.0850351 12.8834 12.6232
37 1 Ar 26.8354 12.2244 15.2324
38 1 Ar 28.8033 12.9517 19.0896
39 1 Ar 28.8605 12.3456 22.1911
40 1 Ar 28.0812 16.3385 28.3079
41 1 Ar 28.7764 15.9537 2.80631
42 1 Ar 28.4456 16.8138 6.20564
43 1 Ar 27.3646 17.2029 9.887
44 1 Ar 27.8044 16.0585 13.2804
45 1 Ar 28.3531 15.8288 16.3709
46 1 Ar 0.0526982 16.44 20.4888
47 1 Ar 27.2866 15.5786 23.5568
48 1 Ar 28.7123 19.9042 28.9396
49 1 Ar 28.8609 19.8538 3.51401
50 1 Ar 26.7253 19.7729 6.77657
51 1 Ar 0.028142 20.4612 9.56807
52 1 Ar 27.6368 19.8237 12.9052
53 1 Ar 28.1518 19.1918 16.257
54 1 Ar 28.113 20.2984 19.9227
55 1 Ar 0.0349893 18.8728 22.7871
56 1 Ar 26.3169 22.6881 28.3617
57 1 Ar 28.4802 23.5382 3.14998
58 1 Ar 27.8479 22.9476 6.51487
59 1 Ar 28.1245 23.7288 9.64773
60 1 Ar 28.0712 23.6486 13.6786
61 1 Ar 28.9109 23.1842 16.945
62 1 Ar 26.9382 24.2703 19.4011
63 1 Ar 0.720427 22.297 23.9632
64 1 Ar 3.34523 28.2175 28.9
65 1 Ar 2.74298 28.3351 3.01787
66 1 Ar 3.41973 29.0407 6.28126
67 1 Ar 3.0207 28.9058 9.88482
68 1 Ar 3.61992 26.3994 12.3905
69 1 Ar 2.43739 28.8134 15.8736
70 1 Ar 2.64153 28.4378 19.2821
71 1 Ar 3.33519 28.948 22.8162
72 1 Ar 2.54303 2.84044 28.2889
73 1 Ar 2.84887 3.12101 3.01213
74 1 Ar 1.84559 3.11025 6.0781
75 1 Ar 3.32135 3.07437 9.08754
76 1 Ar 3.20303 2.4233 12.9207
77 1 Ar 2.77483 3.13384 16.3576
78 1 Ar 2.83407 2.38638 20.1505
79 1 Ar 2.43615 3.1436 23.391
80 1 Ar 3.31484 6.12871 29.0283
81 1 Ar 2.62669 6.38939 3.15629
82 1 Ar 2.5327 6.72996 6.45827
83 1 Ar 2.07594 6.17797 9.70161
84 1 Ar 2.34197 6.40952 13.2245
85 1 Ar 2.15679 6.73393 16.6819
86 1 Ar 3.1094 5.80191 19.8737
87 1 Ar 2.91929 6.4493 23.8247
88 1 Ar 3.45043 9.40734 27.6607
89 1 Ar 2.45714 9.52814 2.02109
90 1 Ar 3.09177 10.2055 6.0113
91 1 Ar 3.04421 9.3721 9.45751
92 1 Ar 2.89144 9.94639 12.7832
93 1 Ar 3.48877 9.72065 16.2172
94 1 Ar 2.9299 9.4217 19.8758
95 1 Ar 2.75639 9.79982 24.5486
96 1 Ar 2.98075 12.657 28.796
97 1 Ar 3.12554 12.6235 3.1034
98 1 Ar 4.00445 13.844 6.45284
99 1 Ar 2.75253 12.7757 10.0274
100 1 Ar 3.51455 13.1744 13.5946
101 1 Ar 1.31886 13.1903 16.1482
102 1 Ar 3.21291 13.0437 19.0556
103 1 Ar 3.20065 13.2589 23.2185
104 1 Ar 2.87379 16.0433 28.7526
105 1 Ar 2.98784 15.8992 3.51977
106 1 Ar 3.05234 17.0401 6.69535
107 1 Ar 1.66617 16.0169 9.80883
108 1 Ar 2.3937 15.9628 12.9691
109 1 Ar 3.1224 15.8205 16.269
110 1 Ar 3.12612 16.5336 19.5572
111 1 Ar 3.16936 16.9653 23.1025
112 1 Ar 3.90459 19.1333 27.0946
113 1 Ar 3.20446 19.2248 1.43956
114 1 Ar 1.77266 20.6603 6.1478
115 1 Ar 3.6508 19.5824 9.02845
116 1 Ar 2.52731 19.6763 12.1573
117 1 Ar 2.45839 19.1482 15.7358
118 1 Ar 2.29967 19.906 19.2647
119 1 Ar 3.37005 20.5657 22.763
120 1 Ar 2.09058 22.9966 28.5619
121 1 Ar 2.87652 22.1006 3.18869
122 1 Ar 3.18783 24.7505 5.95327
123 1 Ar 2.87255 23.3197 9.16269
124 1 Ar 2.57996 23.2291 12.7237
125 1 Ar 3.08537 22.3491 16.5912
126 1 Ar 2.03901 23.3798 19.9064
127 1 Ar 3.9304 25.2585 23.5286
128 1 Ar 6.44947 28.831 28.393
129 1 Ar 6.46419 28.9749 2.88417
130 1 Ar 6.71597 28.6579 6.41014
131 1 Ar 6.19339 27.8723 9.51886
132 1 Ar 6.34327 28.4785 12.5827
133 1 Ar 6.17158 0.0963946 15.8332
134 1 Ar 6.10712 28.2626 19.824
135 1 Ar 6.68119 28.044 23.5499
136 1 Ar 6.36204 2.94536 27.8142
137 1 Ar 6.22436 3.06983 2.08497
138 1 Ar 5.60247 3.20289 5.92319
139 1 Ar 6.69221 3.12923 9.32272
140 1 Ar 6.6513 2.87998 12.6703
141 1 Ar 6.14509 3.4123 15.8121
142 1 Ar 6.03053 2.51588 19.0637
143 1 Ar 6.40312 2.72569 23.2647
144 1 Ar 6.66698 6.3048 28.3352
145 1 Ar 6.3776 6.32256 2.73565
146 1 Ar 6.21807 6.60546 6.26349
147 1 Ar 5.52702 6.21369 9.95324
148 1 Ar 6.1821 6.08609 13.1977
149 1 Ar 5.48244 6.75388 16.7994
150 1 Ar 6.52218 5.78208 20.1447
151 1 Ar 6.21062 6.22061 23.7527
152 1 Ar 6.881 9.70725 28.1542
153 1 Ar 6.15719 9.74996 2.53872
154 1 Ar 6.40763 9.95391 6.10708
155 1 Ar 6.41814 9.37101 9.38651
156 1 Ar 6.18256 9.29701 12.8814
157 1 Ar 6.7386 9.97243 15.9199
158 1 Ar 6.16655 9.2005 19.4066
159 1 Ar 6.04852 9.38899 22.6673
160 1 Ar 6.57166 12.8402 0.157265
161 1 Ar 6.42502 13.0493 3.47278
162 1 Ar 7.17792 13.2154 6.63492
163 1 Ar 6.48327 12.7987 9.88237
164 1 Ar 6.64999 12.8633 13.0268
165 1 Ar 5.3878 13.2822 16.4498
166 1 Ar 6.90444 12.3321 20.094
167 1 Ar 6.12473 12.365 23.7982
168 1 Ar 6.46182 16.2841 28.3425
169 1 Ar 6.66363 16.3035 3.27069
170 1 Ar 6.52876 16.5778 6.73628
171 1 Ar 5.53528 16.2725 9.91174
172 1 Ar 6.31957 16.3145 13.1473
173 1 Ar 6.43392 16.4575 16.4461
174 1 Ar 6.22603 15.4531 19.935
175 1 Ar 6.34331 16.0693 24.3865
176 1 Ar 6.81028 19.7041 0.0545788
177 1 Ar 5.9757 19.8526 3.07889
178 1 Ar 5.50204 19.7987 6.19622
179 1 Ar 7.13813 18.967 9.35312
180 1 Ar 5.93808 19.8422 12.5124
181 1 Ar 6.38884 19.8422 16.4425
182 1 Ar 5.74051 18.7419 19.5577
183 1 Ar 7.0796 19.7317 22.9487
184 1 Ar 6.37208 22.8615 28.2671
185 1 Ar 6.02814 23.5247 2.70145
186 1 Ar 6.22244 23.2821 6.41333
187 1 Ar 6.34808 22.5548 9.59699
188 1 Ar 6.05369 23.0592 13.1793
189 1 Ar 6.17365 23.4496 16.4268
190 1 Ar 5.65025 22.3821 19.9022
191 1 Ar 6.97988 22.9758 23.1173
192 1 Ar 9.92557 28.1446 28.328
193 1 Ar 9.81091 28.2036 3.25233
194 1 Ar 9.90071 27.542 6.76238
195 1 Ar 9.82293 29.0495 9.57138
196 1 Ar 9.74316 28.8776 12.8065
197 1 Ar 9.74157 0.0528264 16.4708
198 1 Ar 9.64134 27.7827 19.8373
199 1 Ar 10.4474 27.4577 23.6141
200 1 Ar 9.78521 2.39169 28.6698
201 1 Ar 9.86116 2.47357 2.91538
202 1 Ar 9.25624 2.42565 6.31043
203 1 Ar 10.0401 3.1644 9.51459
204 1 Ar 9.88991 3.62721 13.3046
205 1 Ar 9.74873 3.40563 16.7252
206 1 Ar 9.42654 2.47161 20.0147
207 1 Ar 9.64161 1.88739 23.9342
208 1 Ar 9.93505 6.05733 28.5538
209 1 Ar 10.2029 5.85657 2.80596
210 1 Ar 9.54279 6.19884 6.4618
211 1 Ar 9.31965 6.3049 9.7575
212 1 Ar 9.84857 6.9384 12.8286
213 1 Ar 9.15733 6.49408 16.0773
214 1 Ar 9.72858 6.18113 19.476
215 1 Ar 9.61425 6.29346 22.9516
216 1 Ar 9.85034 9.43195 0.0398024
217 1 Ar 9.31279 9.18212 3.47667
218 1 Ar 9.60058 9.78495 6.7958
219 1 Ar 9.96312 9.70796 9.90859
220 1 Ar 9.10145 10.1149 12.7502
221 1 Ar 10.137 9.78781 15.7348
222 1 Ar 9.22119 9.88836 19.046
223 1 Ar 9.28727 9.68516 23.0301
224 1 Ar 9.6384 13.2579 28.2748
225 1 Ar 9.82283 12.8161 2.83358
226 1 Ar 10.4149 13.2489 6.12411
227 1 Ar 9.98816 13.0386 9.78219
228 1 Ar 9.86047 13.1784 13.3651
229 1 Ar 9.05435 13.0806 16.5862
230 1 Ar 10.8468 13.518 19.6311
231 1 Ar 9.11398 13.2504 23.255
232 1 Ar 9.69522 16.5073 28.8566
233 1 Ar 9.95294 16.0029 3.29845
234 1 Ar 10.0602 16.4747 6.54665
235 1 Ar 9.36652 16.2605 9.5432
236 1 Ar 9.62624 16.2974 12.6539
237 1 Ar 9.57587 16.5565 15.7623
238 1 Ar 9.50916 16.6827 18.8121
239 1 Ar 9.49267 16.7029 22.5306
240 1 Ar 9.94158 19.9476 28.0598
241 1 Ar 9.67334 19.2924 2.43609
242 1 Ar 8.84651 20.2807 5.81661
243 1 Ar 10.0991 19.8972 9.3535
244 1 Ar 9.44103 19.7973 12.9633
245 1 Ar 10.1537 20.0527 16.7177
246 1 Ar 9.15594 19.6034 20.244
247 1 Ar 10.4346 19.9706 24.036
248 1 Ar 9.85582 24.4565 28.8766
249 1 Ar 9.57198 22.7271 3.46996
250 1 Ar 9.6624 24.1081 6.4828
251 1 Ar 9.95117 23.9435 9.62913
252 1 Ar 9.48809 23.5197 13.1211
253 1 Ar 9.43805 24.0822 16.5236
254 1 Ar 9.20604 23.1929 20.378
255 1 Ar 10.2953 23.2635 24.0328
256 1 Ar 13.4311 27.2035 28.138
257 1 Ar 13.3572 28.4805 2.95764
258 1 Ar 13.316 29.0457 6.31065
259 1 Ar 13.2926 27.4143 9.37625
260 1 Ar 13.2314 28.5251 12.7285
261 1 Ar 13.1149 28.0357 16.9015
262 1 Ar 12.8212 0.048676 20.1434
263 1 Ar 12.9346 0.333395 25.0256
264 1 Ar 13.0229 2.89028 27.3897
265 1 Ar 13.0508 2.57102 1.79637
266 1 Ar 12.7924 3.01938 5.88658
267 1 Ar 13.2703 2.79185 9.54527
268 1 Ar 13.31 3.1905 12.8112
269 1 Ar 12.9105 2.5454 16.2929
270 1 Ar 12.7956 3.43948 19.7877
271 1 Ar 12.8743 3.52653 24.174
272 1 Ar 13.5888 5.67842 29.0247
273 1 Ar 13.464 5.97187 3.33162
274 1 Ar 12.9196 6.24048 6.88216
275 1 Ar 12.7458 6.20551 10.198
276 1 Ar 13.2233 6.41339 13.2862
277 1 Ar 12.7008 5.7591 16.545
278 1 Ar 12.7986 6.8224 19.6161
279 1 Ar 12.688 6.5488 23.1337
280 1 Ar 13.1078 9.39234 28.7263
281 1 Ar 12.9932 9.64032 2.86897
282 1 Ar 12.777 9.3633 5.98891
283 1 Ar 12.9743 9.58825 9.12682
284 1 Ar 12.6967 9.75963 12.4465
285 1 Ar 13.4445 9.0518 15.9339
286 1 Ar 12.8882 10.0914 18.9694
287 1 Ar 13.4097 9.52611 22.5218
288 1 Ar 12.8873 12.5846 26.9756
289 1 Ar 12.8561 13.0077 2.26308
290 1 Ar 13.5071 12.5797 5.54236
291 1 Ar 13.1814 12.9108 9.35006
292 1 Ar 12.9895 13.191 12.771
293 1 Ar 13.1246 12.7714 16.1527
294 1 Ar 14.0943 13.1465 19.7031
295 1 Ar 12.5145 12.7468 23.2598
296 1 Ar 12.695 16.8038 27.7865
297 1 Ar 13.0194 16.8966 2.31277
298 1 Ar 13.6548 15.9489 5.81543
299 1 Ar 12.3964 15.9892 9.11647
300 1 Ar 13.1748 16.7852 12.5609
301 1 Ar 12.536 16.1125 16.3838
302 1 Ar 12.6042 16.2512 20.6882
303 1 Ar 12.3901 16.1133 24.5248
304 1 Ar 13.0445 19.6878 0.251525
305 1 Ar 12.6459 20.83 3.43133
306 1 Ar 12.1924 19.1019 6.36727
307 1 Ar 13.59 19.0462 9.67864
308 1 Ar 12.8563 20.4746 12.5143
309 1 Ar 13.4145 19.3792 15.4418
310 1 Ar 12.6279 19.826 19.7174
311 1 Ar 13.4065 18.8457 22.9386
312 1 Ar 13.0581 22.8923 28.4197
313 1 Ar 12.9733 24.3525 2.9951
314 1 Ar 12.7539 22.6682 6.03679
315 1 Ar 13.1403 22.8638 9.5324
316 1 Ar 12.7025 24.2131 12.8382
317 1 Ar 12.5798 22.7206 16.299
318 1 Ar 12.8279 23.3903 19.9372
319 1 Ar 13.6246 22.8523 23.9778
320 1 Ar 16.8964 27.9366 28.8957
321 1 Ar 16.4754 28.9695 3.36242
322 1 Ar 16.6799 28.6311 6.68129
323 1 Ar 16.5215 29.0325 9.97145
324 1 Ar 16.5247 28.4419 12.9615
325 1 Ar 16.2363 27.7809 16.1326
326 1 Ar 16.2081 28.953 19.4801
327 1 Ar 15.0897 27.4977 22.9603
328 1 Ar 16.0427 2.22512 28.8938
329 1 Ar 16.0227 3.0038 3.49994
330 1 Ar 16.5573 3.05145 6.66406
331 1 Ar 16.6094 3.42337 9.83026
332 1 Ar 16.4478 3.00856 13.0634
333 1 Ar 16.1676 2.53265 16.2429
334 1 Ar 16.3066 3.38047 20.1481
335 1 Ar 15.8392 2.35829 23.4248
336 1 Ar 16.3565 6.54049 27.5388
337 1 Ar 16.6805 6.07738 2.21658
338 1 Ar 16.4688 6.33758 6.13625
339 1 Ar 16.0051 6.65965 9.43442
340 1 Ar 16.7123 6.30658 12.4978
341 1 Ar 16.3444 6.3722 15.8808
342 1 Ar 16.0623 6.46678 19.234
343 1 Ar 16.0403 6.0271 22.6219
344 1 Ar 16.2423 9.9373 28.8451
345 1 Ar 16.2047 9.388 3.23033
346 1 Ar 15.9267 9.52464 6.59605
347 1 Ar 15.8997 9.99663 9.92565
348 1 Ar 15.7938 9.66642 12.9977
349 1 Ar 16.949 9.91773 15.9215
350 1 Ar 16.0175 9.78779 19.3216
351 1 Ar 16.8864 9.63224 23.2614
352 1 Ar 16.3326 13.5673 27.3549
353 1 Ar 16.2618 12.7979 2.35898
354 1 Ar 16.8536 12.7647 6.34421
355 1 Ar 16.5373 13.1363 9.64273
356 1 Ar 16.1696 13.0199 13.0392
357 1 Ar 16.4766 12.9826 16.3318
358 1 Ar 17.2603 12.7466 20.2028
359 1 Ar 15.7961 13.1704 23.9327
360 1 Ar 15.6512 16.6011 0.0162691
361 1 Ar 16.2857 16.2066 3.46261
362 1 Ar 17.27 15.9842 6.75137
363 1 Ar 16.1375 16.6224 9.69342
364 1 Ar 17.0469 15.9607 12.8166
365 1 Ar 15.7421 16.2051 16.1834
366 1 Ar 16.2697 15.953 19.63
367 1 Ar 16.4788 16.6976 23.1581
368 1 Ar 16.3856 20.4998 28.4316
369 1 Ar 16.0911 19.6099 2.89183
370 1 Ar 15.689 19.2868 6.19857
371 1 Ar 16.8178 20.2308 9.56172
372 1 Ar 16.7939 19.6557 12.7894
373 1 Ar 16.788 19.4133 16.3012
374 1 Ar 16.3021 19.7307 19.9299
375 1 Ar 16.6405 19.973 23.3916
376 1 Ar 16.3093 24.186 28.1565
377 1 Ar 16.1884 22.8638 2.51749
378 1 Ar 16.7197 23.1602 6.25291
379 1 Ar 17.2961 23.5999 9.80646
380 1 Ar 16.1652 22.9942 13.7026
381 1 Ar 15.9907 22.9401 16.961
382 1 Ar 16.2519 22.87 21.0022
383 1 Ar 16.6428 23.4947 24.6283
384 1 Ar 19.7393 28.5625 27.3634
385 1 Ar 19.5808 27.758 2.65699
386 1 Ar 19.7306 28.2832 6.06977
387 1 Ar 19.7147 28.1361 9.49139
388 1 Ar 19.7141 28.6684 12.9211
389 1 Ar 19.5103 28.7277 16.2948
390 1 Ar 19.5843 28.9931 19.7194
391 1 Ar 19.3285 28.2261 23.0539
392 1 Ar 19.6229 2.53246 28.4726
393 1 Ar 19.8927 2.70009 3.07041
394 1 Ar 19.8832 2.62605 6.32416
395 1 Ar 20.3347 2.2784 9.6133
396 1 Ar 19.4907 3.17639 12.5539
397 1 Ar 19.6084 3.26462 15.8144
398 1 Ar 19.8077 3.0746 18.9405
399 1 Ar 19.7544 2.47703 22.6398
400 1 Ar 20.0911 5.93994 28.2248
401 1 Ar 19.8651 6.6302 2.75694
402 1 Ar 19.9185 6.34403 5.96799
403 1 Ar 20.2763 5.75378 9.55821
404 1 Ar 19.9647 6.25209 13.0394
405 1 Ar 19.5314 6.40503 16.5128
406 1 Ar 19.6439 6.36705 20.0172
407 1 Ar 19.1633 6.07591 23.8346
408 1 Ar 18.7422 8.90952 26.4575
409 1 Ar 19.7879 10.16 3.2172
410 1 Ar 19.3369 9.67924 6.6233
411 1 Ar 19.0969 9.47777 9.84213
412 1 Ar 19.2848 9.66431 13.1692
413 1 Ar 20.4277 9.80491 16.3329
414 1 Ar 19.5734 9.75462 19.8551
415 1 Ar 20.1662 9.62908 23.7006
416 1 Ar 19.9017 12.7847 28.4896
417 1 Ar 19.4912 13.3795 2.81394
418 1 Ar 20.023 12.772 6.11051
419 1 Ar 19.7658 13.0285 9.42292
420 1 Ar 19.3043 12.8855 12.91
421 1 Ar 19.7088 13.226 16.3594
422 1 Ar 20.6721 13.0568 19.7091
423 1 Ar 19.1377 12.7876 23.0648
424 1 Ar 19.5508 16.1259 28.2249
425 1 Ar 19.9221 16.7643 3.59332
426 1 Ar 20.4295 16.2002 6.75413
427 1 Ar 19.3787 16.5916 9.82385
428 1 Ar 20.8217 15.8382 12.9657
429 1 Ar 19.2799 16.7364 15.8687
430 1 Ar 19.9478 16.5116 19.1996
431 1 Ar 19.8579 16.0015 22.9614
432 1 Ar 19.8379 19.9214 28.4294
433 1 Ar 19.6247 19.8878 2.99347
434 1 Ar 19.7514 19.6904 6.48092
435 1 Ar 20.2275 19.8959 9.88723
436 1 Ar 20.166 19.1851 13.2851
437 1 Ar 20.1471 19.8781 16.4781
438 1 Ar 19.7581 20.3184 19.689
439 1 Ar 20.3541 19.4085 23.8768
440 1 Ar 19.4753 23.5945 29.0501
441 1 Ar 20.3716 24.0363 3.46687
442 1 Ar 20.102 23.1 6.6947
443 1 Ar 20.8038 24.3168 10.2076
444 1 Ar 21.0395 22.5818 13.2473
445 1 Ar 20.4311 23.5238 16.4064