ITEM: TIMESTEP
-1
ITEM: NUMBER OF ATOMS
500
ITEM: BOX BOUNDS pp pp pp
0 29.0696
0 29.0696
0 29.0696
ITEM: ATOMS id type element xu yu zu
0 1 Ar 0 0 0
1 1 Ar 0 0 3.22995
2 1 Ar 0 0 6.45991
3 1 Ar 0 0 9.68986
4 1 Ar 0 0 12.9198
5 1 Ar 0 0 16.1498
6 1 Ar 0 0 19.3797
7 1 Ar 0 0 22.6097
8 1 Ar 0 3.22995 0
9 1 Ar 0 3.22995 3.22995
10 1 Ar 0 3.22995 6.45991
11 1 Ar 0 3.22995 9.68986
12 1 Ar 0 3.22995 12.9198
13 1 Ar 0 3.22995 16.1498
14 1 Ar 0 3.22995 19.3797
15 1 Ar 0 3.22995 22.6097
16 1 Ar 0 6.45991 0
17 1 Ar 0 6.45991 3.22995
18 1 Ar 0 6.45991 6.45991
19 1 Ar 0 6.45991 9.68986
20 1 Ar 0 6.45991 12.9198
21 1 Ar 0 6.45991 16.1498
22 1 Ar 0 6.45991 19.3797
23 1 Ar 0 6.45991 22.6097
24 1 Ar 0 9.68986 0
25 1 Ar 0 9.68986 3.22995
26 1 Ar 0 9.68986 6.45991
27 1 Ar 0 9.68986 9.68986
28 1 Ar 0 9.68986 12.9198
29 1 Ar 0 9.68986 16.1498
30 1 Ar 0 9.68986 19.3797
31 1 Ar 0 9.68986 22.6097
32 1 Ar 0 12.9198 0
33 1 Ar 0 12.9198 3.22995
34 1 Ar 0 12.9198 6.45991
35 1 Ar 0 12.9198 9.68986
36 1 Ar 0 12.9198 12.9198
37 1 Ar 0 12.9198 16.1498
38 1 Ar 0 12.9198 19.3797
39 1 Ar 0 12.9198 22.6097
40 1 Ar 0 16.1498 0
41 1 Ar 0 16.1498 3.22995
42 1 Ar 0 16.1498 6.45991
43 1 Ar 0 16.1498 9.68986
44 1 Ar 0 16.1498 12.9198
45 1 Ar 0 16.1498 16.1498
46 1 Ar 0 16.1498 19.3797
47 1 Ar 0 16.1498 22.6097
48 1 Ar 0 19.3797 0
49 1 Ar 0 19.3797 3.22995
50 1 Ar 0 19.3797 6.45991
51 1 Ar 0 19.3797 9.68986
52 1 Ar 0 19.3797 12.9198
53 1 Ar 0 19.3797 16.1498
54 1 Ar 0 19.3797 19.3797
55 1 Ar 0 19.3797 22.6097
56 1 Ar 0 22.6097 0
57 1 Ar 0 22.6097 3.22995
58 1 Ar 0 22.6097 6.45991
59 1 Ar 0 22.6097 9.68986
60 1 Ar 0 22.6097 12.9198
61 1 Ar 0 22.6097 16.1498
62 1 Ar 0 22.6097 19.3797
63 1 Ar 0 22.6097 22.6097
64 1 Ar 3.22995 0 0
65 1 Ar 3.22995 0 3.22995
66 1 Ar 3.22995 0 6.45991
67 1 Ar 3.22995 0 9.68986
68 1 Ar 3.22995 0 12.9198
69 1 Ar 3.22995 0 16.1498
70 1 Ar 3.22995 0 19.3797
71 1 Ar 3.22995 0 22.6097
72 1 Ar 3.22995 3.22995 0
73 1 Ar 3.22995 3.22995 3.22995
74 1 Ar 3.22995 3.22995 6.45991
75 1 Ar 3.22995 3.22995 9.68986
76 1 Ar 3.22995 3.22995 12.9198
77 1 Ar 3.22995 3.22995 16.1498
78 1 Ar 3.22995 3.22995 19.3797
79 1 Ar 3.22995 3.22995 22.6097
80 1 Ar 3.22995 6.45991 0
81 1 Ar 3.22995 6.45991 3.22995
82 1 Ar 3.22995 6.45991 6.45991
83 1 Ar 3.22995 6.45991 9.68986
84 1 Ar 3.22995 6.45991 12.9198
85 1 Ar 3.22995 6.45991 16.1498
86 1 Ar 3.22995 6.45991 19.3797
87 1 Ar 3.22995 6.45991 22.6097
88 1 Ar 3.22995 9.68986 0
89 1 Ar 3.22995 9.68986 3.22995
90 1 Ar 3.22995 9.68986 6.45991
91 1 Ar 3.22995 9.68986 9.68986
92 1 Ar 3.22995 9.68986 12.9198
93 1 Ar 3.22995 9.68986 16.1498
94 1 Ar 3.22995 9.68986 19.3797
95 1 Ar 3.22995 9.68986 22.6097
96 1 Ar 3.22995 12.9198 0
97 1 Ar 3.22995 12.9198 3.22995
98 1 Ar 3.22995 12.9198 6.45991
99 1 Ar 3.22995 12.9198 9.68986
100 1 Ar 3.22995 12.9198 12.9198
101 1 Ar 3.22995 12.9198 16.1498
102 1 Ar 3.22995 12.9198 19.3797
103 1 Ar 3.22995 12.9198 22.6097
104 1 Ar 3.22995 16.1498 0
105 1 Ar 3.22995 16.1498 3.22995
106 1 Ar 3.22995 16.1498 6.45991
107 1 Ar 3.22995 16.1498 9.68986
108 1 Ar 3.22995 16.1498 12.9198
109 1 Ar 3.22995 16.1498 16.1498
110 1 Ar 3.22995 16.1498 19.3797
111 1 Ar 3.22995 16.1498 22.6097
112 1 Ar 3.22995 19.3797 0
113 1 Ar 3.22995 19.3797 3.22995
114 1 Ar 3.22995 19.3797 6.45991
115 1 Ar 3.22995 19.3797 9.68986
116 1 Ar 3.22995 19.3797 12.9198
117 1 Ar 3.22995 19.3797 16.1498
118 1 Ar 3.22995 19.3797 19.3797
119 1 Ar 3.22995 19.3797 22.6097
120 1 Ar 3.22995 22.6097 0
121 1 Ar 3.22995 22.6097 3.22995
122 1 Ar 3.22995 22.6097 6.45991
123 1 Ar 3.22995 22.6097 9.68986
124 1 Ar 3.22995 22.6097 12.9198
125 1 Ar 3.22995 22.6097 16.1498
126 1 Ar 3.22995 22.6097 19.3797
127 1 Ar 3.22995 22.6097 22.6097
128 1 Ar 6.45991 0 0
129 1 Ar 6.45991 0 3.22995
130 1 Ar 6.45991 0 6.45991
131 1 Ar 6.45991 0 9.68986
132 1 Ar 6.45991 0 12.9198
133 1 Ar 6.45991 0 16.1498
134 1 Ar 6.45991 0 19.3797
135 1 Ar 6.45991 0 22.6097
136 1 Ar 6.45991 3.22995 0
137 1 Ar 6.45991 3.22995 3.22995
138 1 Ar 6.45991 3.22995 6.45991
139 1 Ar 6.45991 3.22995 9.68986
140 1 Ar 6.45991 3.22995 12.9198
141 1 Ar 6.45991 3.22995 16.1498
142 1 Ar 6.45991 3.22995 19.3797
143 1 Ar 6.45991 3.22995 22.6097
144 1 Ar 6.45991 6.45991 0
145 1 Ar 6.45991 6.45991 3.22995
146 1 Ar 6.45991 6.45991 6.45991
147 1 Ar 6.45991 6.45991 9.68986
148 1 Ar 6.45991 6.45991 12.9198
149 1 Ar 6.45991 6.45991 16.1498
150 1 Ar 6.45991 6.45991 19.3797
151 1 Ar 6.45991 6.45991 22.6097
152 1 Ar 6.45991 9.68986 0
153 1 Ar 6.45991 9.68986 3.22995
154 1 Ar 6.45991 9.68986 6.45991
155 1 Ar 6.45991 9.68986 9.68986
156 1 Ar 6.45991 9.68986 12.9198
157 1 Ar 6.45991 9.68986 16.1498
158 1 Ar 6.45991 9.68986 19.3797
159 1 Ar 6.45991 9.68986 22.6097
160 1 Ar 6.45991 12.9198 0
161 1 Ar 6.45991 12.9198 3.22995
162 1 Ar 6.45991 12.9198 6.45991
163 1 Ar 6.45991 12.9198 9.68986
164 1 Ar 6.45991 12.9198 12.9198
165 1 Ar 6.45991 12.9198 16.1498
166 1 Ar 6.45991 12.9198 19.3797
167 1 Ar 6.45991 12.9198 22.6097
168 1 Ar 6.45991 16.1498 0
169 1 Ar 6.45991 16.1498 3.22995
170 1 Ar 6.45991 16.1498 6.45991
171 1 Ar 6.45991 16.1498 9.68986
172 1 Ar 6.45991 16.1498 12.9198
173 1 Ar 6.45991 16.1498 16.1498
174 1 Ar 6.45991 16.1498 19.3797
175 1 Ar 6.45991 16.1498 22.6097
176 1 Ar 6.45991 19.3797 0
177 1 Ar 6.45991 19.3797 3.22995
178 1 Ar 6.45991 19.3797 6.45991
179 1 Ar 6.45991 19.3797 9.68986
180 1 Ar 6.45991 19.3797 12.9198
181 1 Ar 6.45991 19.3797 16.1498
182 1 Ar 6.45991 19.3797 19.3797
183 1 Ar 6.45991 19.3797 22.6097
184 1 Ar 6.45991 22.6097 0
185 1 Ar 6.45991 22.6097 3.22995
186 1 Ar 6.45991 22.6097 6.45991
187 1 Ar 6.45991 22.6097 9.68986
188 1 Ar 6.45991 22.6097 12.9198
189 1 Ar 6.45991 22.6097 16.1498
190 1 Ar 6.45991 22.6097 19.3797
191 1 Ar 6.45991 22.6097 22.6097
192 1 Ar 9.68986 0 0
193 1 Ar 9.68986 0 3.22995
194 1 Ar 9.68986 0 6.45991
195 1 Ar 9.68986 0 9.68986
196 1 Ar 9.68986 0 12.9198
197 1 Ar 9.68986 0 16.1498
198 1 Ar 9.68986 0 19.3797
199 1 Ar 9.68986 0 22.6097
200 1 Ar 9.68986 3.22995 0
201 1 Ar 9.68986 3.22995 3.22995
202 1 Ar 9.68986 3.22995 6.45991
203 1 Ar 9.68986 3.22995 9.68986
204 1 Ar 9.68986 3.22995 12.9198
205 1 Ar 9.68986 3.22995 16.1498
206 1 Ar 9.68986 3.22995 19.3797
207 1 Ar 9.68986 3.22995 22.6097
208 1 Ar 9.68986 6.45991 0
209 1 Ar 9.68986 6.45991 3.22995
210 1 Ar 9.68986 6.45991 6.45991
211 1 Ar 9.68986 6.45991 9.68986
212 1 Ar 9.68986 6.45991 12.9198
213 1 Ar 9.68986 6.45991 16.1498
214 1 Ar 9.68986 6.45991 19.3797
215 1 Ar 9.68986 6.45991 22.6097
216 1 Ar 9.68986 9.68986 0
217 1 Ar 9.68986 9.68986 3.22995
218 1 Ar 9.68986 9.68986 6.45991
219 1 Ar 9.68986 9.68986 9.68986
220 1 Ar 9.68986 9.68986 12.9198
221 1 Ar 9.68986 9.68986 16.1498
222 1 Ar 9.68986 9.68986 19.3797
223 1 Ar 9.68986 9.68986 22.6097
224 1 Ar 9.68986 12.9198 0
225 1 Ar 9.68986 12.9198 3.22995
226 1 Ar 9.68986 12.9198 6.45991
227 1 Ar 9.68986 12.9198 9.68986
228 1 Ar 9.68986 12.9198 12.9198
229 1 Ar 9.68986 12.9198 16.1498
230 1 Ar 9.68986 12.9198 19.3797
231 1 Ar 9.68986 12.9198 22.6097
232 1 Ar 9.68986 16.1498 0
233 1 Ar 9.68986 16.1498 3.22995
234 1 Ar 9.68986 16.1498 6.45991
235 1 Ar 9.68986 16.1498 9.68986
236 1 Ar 9.68986 16.1498 12.9198
237 1 Ar 9.68986 16.1498 16.1498
238 1 Ar 9.68986 16.1498 19.3797
239 1 Ar 9.68986 16.1498 22.6097
240 1 Ar 9.68986 19.3797 0
241 1 Ar 9.68986 19.3797 3.22995
242 1 Ar 9.68986 19.3797 6.45991
243 1 Ar 9.68986 19.3797 9.68986
244 1 Ar 9.68986 19.3797 12.9198
245 1 Ar 9.68986 19.3797 16.1498
246 1 Ar 9.68986 19.3797 19.3797
247 1 Ar 9.68986 19.3797 22.6097
248 1 Ar 9.68986 22.6097 0
249 1 Ar 9.68986 22.6097 3.22995
250 1 Ar 9.68986 22.6097 6.45991
251 1 Ar 9.68986 22.6097 9.68986
252 1 Ar 9.68986 22.6097 12.9198
253 1 Ar 9.68986 22.6097 16.1498
254 1 Ar 9.68986 22.6097 19.3797
255 1 Ar 9.68986 22.6097 22.6097
256 1 Ar 12.9198 0 0
257 1 Ar 12.9198 0 3.22995
258 1 Ar 12.9198 0 6.45991
259 1 Ar 12.9198 0 9.68986
260 1 Ar 12.9198 0 12.9198
261 1 Ar 12.9198 0 16.1498
262 1 Ar 12.9198 0 19.3797
263 1 Ar 12.9198 0 22.6097
264 1 Ar 12.9198 3.22995 0
265 1 Ar 12.9198 3.22995 3.22995
266 1 Ar 12.9198 3.22995 6.45991
267 1 Ar 12.9198 3.22995 9.68986
268 1 Ar 12.9198 3.22995 12.9198
269 1 Ar 12.9198 3.22995 16.1498
270 1 Ar 12.9198 3.22995 19.3797
271 1 Ar 12.9198 3.22995 22.6097
272 1 Ar 12.9198 6.45991 0
273 1 Ar 12.9198 6.45991 3.22995
274 1 Ar 12.9198 6.45991 6.45991
275 1 Ar 12.9198 6.45991 9.68986
276 1 Ar 12.9198 6.45991 12.9198
277 1 Ar 12.9198 6.45991 16.1498
278 1 Ar 12.9198 6.45991 19.3797
279 1 Ar 12.9198 6.45991 22.6097
280 1 Ar 12.9198 9.68986 0
281 1 Ar 12.9198 9.68986 3.22995
282 1 Ar 12.9198 9.68986 6.45991
283 1 Ar 12.9198 9.68986 9.68986
284 1 Ar 12.9198 9.68986 12.9198
285 1 Ar 12.9198 9.68986 16.1498
286 1 Ar 12.9198 9.68986 19.3797
287 1 Ar 12.9198 9.68986 22.6097
288 1 Ar 12.9198 12.9198 0
289 1 Ar 12.9198 12.9198 3.22995
290 1 Ar 12.9198 12.9198 6.45991
291 1 Ar 12.9198 12.9198 9.68986
292 1 Ar 12.9198 12.9198 12.9198
293 1 Ar 12.9198 12.9198 16.1498
294 1 Ar 12.9198 12.9198 19.3797
295 1 Ar 12.9198 12.9198 22.6097
296 1 Ar 12.9198 16.1498 0
297 1 Ar 12.9198 16.1498 3.22995
298 1 Ar 12.9198 16.1498 6.45991
299 1 Ar 12.9198 16.1498 9.68986
300 1 Ar 12.9198 16.1498 12.9198
301 1 Ar 12.9198 16.1498 16.1498
302 1 Ar 12.9198 16.1498 19.3797
303 1 Ar 12.9198 16.1498 22.6097
304 1 Ar 12.9198 19.3797 0
305 1 Ar 12.9198 19.3797 3.22995
306 1 Ar 12.9198 19.3797 6.45991
307 1 Ar 12.9198 19.3797 9.68986
308 1 Ar 12.9198 19.3797 12.9198
309 1 Ar 12.9198 19.3797 16.1498
310 1 Ar 12.9198 19.3797 19.3797
311 1 Ar 12.9198 19.3797 22.6097
312 1 Ar 12.9198 22.6097 0
313 1 Ar 12.9198 22.6097 3.22995
314 1 Ar 12.9198 22.6097 6.45991
315 1 Ar 12.9198 22.6097 9.68986
316 1 Ar 12.9198 22.6097 12.9198
317 1 Ar 12.9198 22.6097 16.1498
318 1 Ar 12.9198 22.6097 19.3797
319 1 Ar 12.9198 22.6097 22.6097
320 1 Ar 16.1498 0 0
321 1 Ar 16.1498 0 3.22995
322 1 Ar 16.1498 0 6.45991
323 1 Ar 16.1498 0 9.68986
324 1 Ar 16.1498 0 12.9198
325 1 Ar 16.1498 0 16.1498
326 1 Ar 16.1498 0 19.3797
327 1 Ar 16.1498 0 22.6097
328 1 Ar 16.1498 3.22995 0
329 1 Ar 16.1498 3.22995 3.22995
330 1 Ar 16.1498 3.22995 6.45991
331 1 Ar 16.1498 3.22995 9.68986
332 1 Ar 16.1498 3.22995 12.9198
333 1 Ar 16.1498 3.22995 16.1498
334 1 Ar 16.1498 3.22995 19.3797
335 1 Ar 16.1498 3.22995 22.6097
336 1 Ar 16.1498 6.45991 0
337 1 Ar 16.1498 6.45991 3.22995
338 1 Ar 16.1498 6.45991 6.45991
339 1 Ar 16.1498 6.45991 9.68986
340 1 Ar 16.1498 6.45991 12.9198
341 1 Ar 16.1498 6.45991 16.1498
342 1 Ar 16.1498 6.45991 19.3797
343 1 Ar 16.1498 6.45991 22.6097
344 1 Ar 16.1498 9.68986 0
345 1 Ar 16.1498 9.68986 3.22995
346 1 Ar 16.1498 9.68986 6.45991
347 1 Ar 16.1498 9.68986 9.68986
348 1 Ar 16.1498 9.68986 12.9198
349 1 Ar 16.1498 9.68986 16.1498
350 1 Ar 16.1498 9.68986 19.3797
351 1 Ar 16.1498 9.68986 22.6097
352 1 Ar 16.1498 12.9198 0
353 1 Ar 16.1498 12.9198 3.22995
354 1 Ar 16.1498 12.9198 6.45991
355 1 Ar 16.1498 12.9198 9.68986
356 1 Ar 16.1498 12.9198 12.9198
357 1 Ar 16.1498 12.9198 16.1498
358 1 Ar 16.1498 12.9198 19.3797
359 1 Ar 16.1498 12.9198 22.6097
360 1 Ar 16.1498 16.1498 0
361 1 Ar 16.1498 16.1498 3.22995
362 1 Ar 16.1498 16.1498 6.45991
363 1 Ar 16.1498 16.1498 9.68986
364 1 Ar 16.1498 16.1498 12.9198
365 1 Ar 16.1498 16.1498 16.1498
366 1 Ar 16.1498 16.1498 19.3797
367 1 Ar 16.1498 16.1498 22.6097
368 1 Ar 16.1498 19.3797 0
369 1 Ar 16.1498 19.3797 3.22995
370 1 Ar 16.1498 19.3797 6.45991
371 1 Ar 16.1498 19.3797 9.68986
372 1 Ar 16.1498 19.3797 12.9198
373 1 Ar 16.1498 19.3797 16.1498
374 1 Ar 16.1498 19.3797 19.3797
375 1 Ar 16.1498 19.3797 22.6097
376 1 Ar 16.1498 22.6097 0
377 1 Ar 16.1498 22.6097 3.22995
378 1 Ar 16.1498 22.6097 6.45991
379 1 Ar 16.1498 22.6097 9.68986
380 1 Ar 16.1498 22.6097 12.9198
381 1 Ar 16.1498 22.6097 16.1498
382 1 Ar 16.1498 22.6097 19.3797
383 1 Ar 16.1498 22.6097 22.6097
384 1 Ar 19.3797 0 0
385 1 Ar 19.3797 0 3.22995
386 1 Ar 19.3797 0 6.45991
387 1 Ar 19.3797 0 9.68986
388 1 Ar 19.3797 0 12.9198
389 1 Ar 19.3797 0 16.1498
390 1 Ar 19.3797 0 19.3797
391 1 Ar 19.3797 0 22.6097
392 1 Ar 19.3797 3.22995 0
393 1 Ar 19.3797 3.22995 3.22995
394 1 Ar 19.3797 3.22995 6.45991
395 1 Ar 19.3797 3.22995 9.68986
396 1 Ar 19.3797 3.22995 12.9198
397 1 Ar 19.3797 3.22995 16.1498
398 1 Ar 19.3797 3.22995 19.3797
399 1 Ar 19.3797 3.22995 22.6097
400 1 Ar 19.3797 6.45991 0
401 1 Ar 19.3797 6.45991 3.22995
402 1 Ar 19.3797 6.45991 6.45991
403 1 Ar 19.3797 6.45991 9.68986
404 1 Ar 19.3797 6.45991 12.9198
405 1 Ar 19.3797 6.45991 16.1498
406 1 Ar 19.3797 6.45991 19.3797
407 1 Ar 19.3797 6.45991 22.6097
408 1 Ar 19.3797 9.68986 0
409 1 Ar 19.3797 9.68986 3.22995
410 1 Ar 19.3797 9.68986 6.45991
411 1 Ar 19.3797 9.68986 9.68986
412 1 Ar 19.3797 9.68986 12.9198
413 1 Ar 19.3797 9.68986 16.1498
414 1 Ar 19.3797 9.68986 19.3797
415 1 Ar 19.3797 9.68986 22.6097
416 1 Ar 19.3797 12.9198 0
417 1 Ar 19.3797 12.9198 3.22995
418 1 Ar 19.3797 12.9198 6.45991
419 1 Ar 19.3797 12.9198 9.68986
420 1 Ar 19.3797 12.9198 12.9198
421 1 Ar 19.3797 12.9198 16.1498
422 1 Ar 19.3797 12.9198 19.3797
423 1 Ar 19.3797 12.9198 22.6097
424 1 Ar 19.3797 16.1498 0
425 1 Ar 19.3797 16.1498 3.22995
426 1 Ar 19.3797 16.1498 6.45991
427 1 Ar 19.3797 16.1498 9.68986
428 1 Ar 19.3797 16.1498 12.9198
429 1 Ar 19.3797 16.1498 16.1498
430 1 Ar 19.3797 16.1498 19.3797
431 1 Ar 19.3797 16.1498 22.6097
432 1 Ar 19.3797 19.3797 0
433 1 Ar 19.3797 19.3797 3.22995
434 1 Ar 19.3797 19.3797 6.45991
435 1 Ar 19.3797 19.3797 9.68986
436 1 Ar 19.3797 19.3797 12.9198
437 1 Ar 19.3797 19.3797 16.1498
438 1 Ar 19.3797 19.3797 19.3797
439 1 Ar 19.3797 19.3797 22.6097
440 1 Ar 19.3797 22.6097 0
441 1 Ar 19.3797 22.6097 3.22995
442 1 Ar 19.3797 22.6097 6.45991
443 1 Ar 19.3797 22.6097 9.68986
444 1 Ar 19.3797 22.6097 12.9198
445 1 Ar 19.3797 22.6097 16.1498
446 1 Ar 19.3797 22.6097 19.3797
447 1 Ar 19.3797 22.6097 22.6097
448 1 Ar 22.6097 0 0
449 1 Ar 22.6097 0 3.22995
450 1 Ar 22.6097 0 6.45991
451 1 Ar 22.6097 0 9.68986
452 1 Ar 22.6097 0 12.9198
453 1 Ar 22.6097 0 16.1498
454 1 Ar 22.6097 0 19.3797
455 1 Ar 22.6097 0 22.6097
456 1 Ar 22.6097 3.22995 0
457 1 Ar 22.6097 3.22995 3.22995
458 1 Ar 22.6097 3.22995 6.45991
459 1 Ar 22.6097 3.22995 9.68986
460 1 Ar 22.6097 3.22995 12.9198
461 1 Ar 22.6097 3.22995 16.1498
462 1 Ar 22.6097 3.22995 19.3797
463 1 Ar 22.6097 3.22995 22.6097
464 1 Ar 22.6097 6.45991 0
465 1 Ar 22.6097 6.45991 3.22995
466 1 Ar 22.6097 6.45991 6.45991
467 1 Ar 22.6097 6.45991 9.68986
468 1 Ar 22.6097 6.45991 12.9198
469 1 Ar 22.6097 6.45991 16.1498
470 1 Ar 22.6097 6.45991 19.3797
471 1 Ar 22.6097 6.45991 22.6097
472 1 Ar 22.6097 9.68986 0
473 1 Ar 22.6097 9.68986 3.22995
474 1 Ar 22.6097 9.68986 6.45991
475 1 Ar 22.6097 9.68986 9.68986
476 1 Ar 22.6097 9.68986 12.9198
477 1 Ar 22.6097 9.68986 16.1498
478 1 Ar 22.6097 9.68986 19.3797
479 1 Ar 22.6097 9.68986 22.6097
480 1 Ar 22.6097 12.9198 0
481 1 Ar 22.6097 12.9198 3.22995
482 1 Ar 22.6097 12.9198 6.45991
483 1 Ar 22.6097 12.9198 9.68986
484 1 Ar 22.6097 12.9198 12.9198
485 1 Ar 22.6097 12.9198 16.1498
486 1 Ar 22.6097 12.9198 19.3797
487 1 Ar 22.6097 12.9198 22.6097
488 1 Ar 22.6097 16.1498 0
489 1 Ar 22.6097 16.1498 3.22995
490 1 Ar 22.6097 16.1498 6.45991
491 1 Ar 22.6097 16.1498 9.68986
492 1 Ar 22.6097 16.1498 12.9198
493 1 Ar 22.6097 16.1498 16.1498
494 1 Ar 22.6097 16.1498 19.3797
495 1 Ar 22.6097 16.1498 22.6097
496 1 Ar 22.6097 19.3797 0
497 1 Ar 22.6097 19.3797 3.22995
498 1 Ar 22.6097 19.3797 6.45991
499 1 Ar 22.6097 19.3797 9.68986
ITEM: TIMESTEP
19999
ITEM: NUMBER OF ATOMS
500
ITEM: BOX BOUNDS pp pp pp
0 29.0696
0 29.0696
0 29.0696
ITEM: ATOMS id type element xu yu zu
0 1 Ar 27.1609 28.5179 28.5876
1 1 Ar 28.0081 27.8264 3.12017
2 1 Ar 0.145511 28.241 6.45325
3 1 Ar 27.4499 0.0519734 9.41328
4 1 Ar 28.4066 28.8766 12.7015
5 1 Ar 28.8034 27.7239 16.3253
6 1 Ar 0.327215 28.7374 20.3732
7 1 Ar 27.2671 28.9384 23.5834
8 1 Ar 0.0478358 2.38834 28.9421
9 1 Ar 28.2267 2.83751 3.32589
10 1 Ar 26.5439 3.48241 6.17843
11 1 Ar 0.0663977 3.10375 8.70313
12 1 Ar 28.7738 3.43956 12.8156
13 1 Ar 28.6146 2.11771 16.81
14 1 Ar 28.8674 3.13601 20.1506
15 1 Ar 27.9335 3.13294 23.4055
16 1 Ar 27.956 6.55973 0.179559
17 1 Ar 0.150206 6.37553 3.14457
18 1 Ar 27.8974 6.50818 6.24659
19 1 Ar 27.3285 6.18463 9.54297
20 1 Ar 28.3489 6.93745 12.9895
21 1 Ar 28.9219 5.64062 16.2122
22 1 Ar 27.7518 6.4095 19.2181
23 1 Ar 28.2802 6.71753 22.8645
24 1 Ar 28.9915 9.64768 28.5088
25 1 Ar 27.5257 9.63577 2.53008
26 1 Ar 28.5281 9.81994 6.26069
27 1 Ar 28.9011 9.10173 9.84684
28 1 Ar 28.2332 10.1317 13.1517
29 1 Ar 28.157 9.26473 16.7302
30 1 Ar 28.5727 9.87297 20.2166
31 1 Ar 28.0183 9.85726 23.5106
32 1 Ar 28.8191 12.9143 28.3449
33 1 Ar 28.0138 13.2236 3.01145
34 1 Ar 0.188648 13.0496 6.37277
35 1 Ar 27.3784 12.2548 9.40109
36 1 Ar 28.7158 13.3237 12.8439
37 1 Ar 0.372175 12.2577 16.1412
38 1 Ar 27.3976 12.9241 19.4216
39 1 Ar 27.8038 13.6034 22.7153
40 1 Ar 28.8927 16.3756 28.3135
41 1 Ar 29.0318 16.7241 3.55987
42 1 Ar 0.246666 16.2259 6.80154
43 1 Ar 28.8808 15.1692 9.98619
44 1 Ar 28.4738 17.102 12.863
45 1 Ar 27.1622 15.2608 15.9416
46 1 Ar 28.1896 16.44 19.6402
47 1 Ar 28.5421 16.4709 23.8958
48 1 Ar 28.7728 19.6155 28.836
49 1 Ar 28.2345 20.2622 2.96022
50 1 Ar 28.4566 19.573 6.59034
51 1 Ar 28.8002 18.9411 9.9163
52 1 Ar 28.0371 20.4139 13.1611
53 1 Ar 28.4565 19.3123 16.1158
54 1 Ar 27.8884 20.0255 19.3555
55 1 Ar 28.9957 19.8432 22.6981
56 1 Ar 27.1648 23.2836 28.8624
57 1 Ar 0.202016 23.3269 2.76099
58 1 Ar 27.962 22.9782 5.91375
59 1 Ar 28.4748 22.3771 9.61316
60 1 Ar 27.1551 24.3453 12.5206
61 1 Ar 28.078 23.3627 15.9456
62 1 Ar 28.8201 23.0175 19.9519
63 1 Ar 28.9686 23.6927 23.6435
64 1 Ar 2.22213 28.7665 27.3501
65 1 Ar 3.08391 28.7202 1.68026
66 1 Ar 3.32975 28.1417 5.63958
67 1 Ar 3.51785 27.3837 9.45392
68 1 Ar 2.53808 0.0629163 12.6968
69 1 Ar 2.94549 28.9976 17.0844
70 1 Ar 3.52515 27.3372 19.8811
71 1 Ar 1.56372 27.9851 24.0265
72 1 Ar 3.36612 2.84236 27.9962
73 1 Ar 2.362 3.27169 2.10796
74 1 Ar 2.68829 2.18107 5.67254
75 1 Ar 3.37276 2.22493 9.13508
76 1 Ar 2.83422 3.33331 12.5594
77 1 Ar 3.01586 3.39232 16.0275
78 1 Ar 3.09834 2.08613 19.9377
79 1 Ar 2.3099 3.2736 24.5117
80 1 Ar 3.4836 6.36108 27.5751
81 1 Ar 3.25881 6.56452 2.15302
82 1 Ar 2.49093 5.70818 5.75922
83 1 Ar 1.99386 5.64111 9.94614
84 1 Ar 2.78467 6.86052 13.0475
85 1 Ar 3.15826 6.47132 16.6377
86 1 Ar 2.45061 5.56988 20.1739
87 1 Ar 2.62685 6.44341 23.6087
88 1 Ar 3.24841 9.44448 0.0154845
89 1 Ar 3.33336 10.1276 3.15223
90 1 Ar 2.81428 9.24118 6.29033
91 1 Ar 3.20943 9.7888 10.2986
92 1 Ar 3.06978 10.0356 13.6721
93 1 Ar 3.30113 9.97654 16.8622
94 1 Ar 2.77592 8.82341 20.0245
95 1 Ar 2.31068 9.84481 23.2546
96 1 Ar 3.38252 12.8665 28.2798
97 1 Ar 2.73208 13.3874 2.67519
98 1 Ar 3.37956 12.6211 6.13842
99 1 Ar 2.62907 12.8887 9.69819
100 1 Ar 2.97284 13.2114 13.3214
101 1 Ar 3.44957 13.5744 16.5266
102 1 Ar 2.20682 12.486 19.7114
103 1 Ar 3.14839 12.6107 24.8104
104 1 Ar 3.52703 16.0318 27.6918
105 1 Ar 2.56275 16.6063 1.60839
106 1 Ar 3.36243 16.3363 6.06482
107 1 Ar 3.57097 16.1313 9.36192
108 1 Ar 3.15411 16.7075 12.8684
109 1 Ar 1.77681 16.1741 15.7371
110 1 Ar 2.71756 15.804 19.4242
111 1 Ar 3.25161 15.8233 22.7728
112 1 Ar 3.69848 19.786 28.9751
113 1 Ar 2.9655 19.4259 3.30203
114 1 Ar 2.82786 19.5509 6.62193
115 1 Ar 3.16859 19.4847 9.80638
116 1 Ar 3.42711 20.0164 13.3719
117 1 Ar 2.62268 19.3959 16.9844
118 1 Ar 2.42664 19.6008 20.4453
119 1 Ar 2.71592 19.5163 24.045
120 1 Ar 2.26065 23.613 28.7701
121 1 Ar 2.608 25.7001 3.56325
122 1 Ar 2.97202 22.5008 5.38794
123 1 Ar 2.75187 23.0462 8.90241
124 1 Ar 2.43078 23.5658 12.8797
125 1 Ar 3.43745 23.2532 16.4384
126 1 Ar 3.19083 22.736 20.0408
127 1 Ar 3.23273 23.6811 23.244
128 1 Ar 5.99788 27.938 28.3945
129 1 Ar 6.3957 28.0892 3.24793
130 1 Ar 6.35426 0.218736 6.55478
131 1 Ar 6.72595 28.8707 9.87134
132 1 Ar 5.72431 28.2509 13.1283
133 1 Ar 6.85208 27.2877 16.5274
134 1 Ar 6.94004 28.6049 19.7299
135 1 Ar 5.45312 28.0146 23.0039
136 1 Ar 6.6986 2.30176 0.206421
137 1 Ar 5.40038 2.64601 3.15979
138 1 Ar 6.39893 3.30667 6.42656
139 1 Ar 6.41938 3.09691 9.71076
140 1 Ar 6.43362 2.92211 13.1938
141 1 Ar 6.23398 1.84937 16.72
142 1 Ar 6.57195 3.06045 19.992
143 1 Ar 5.50842 2.6808 23.0829
144 1 Ar 6.53851 5.92388 28.606
145 1 Ar 6.20081 5.7597 3.12528
146 1 Ar 6.6575 6.50915 6.37656
147 1 Ar 5.83332 6.19795 9.85531
148 1 Ar 6.04046 6.23626 13.3294
149 1 Ar 6.49504 5.43619 16.5599
150 1 Ar 5.74598 6.41321 19.7731
151 1 Ar 6.44834 6.20809 23.2531
152 1 Ar 6.55951 9.50799 28.9594
153 1 Ar 6.4395 9.18094 3.29483
154 1 Ar 5.91693 9.98744 6.76752
155 1 Ar 6.7556 9.4993 9.91349
156 1 Ar 6.5632 9.74226 13.1619
157 1 Ar 6.73265 9.04113 16.5174
158 1 Ar 6.26648 9.93053 19.6307
159 1 Ar 5.63486 9.64317 23.0381
160 1 Ar 6.65183 12.9836 0.0992911
161 1 Ar 5.91069 13.3947 3.31338
162 1 Ar 6.61144 13.1679 6.54288
163 1 Ar 6.20591 12.8656 9.8142
164 1 Ar 6.50046 13.1399 13.2113
165 1 Ar 7.0167 12.966 16.544
166 1 Ar 5.53613 13.1168 19.39
167 1 Ar 6.51519 13.0364 22.5101
168 1 Ar 6.48473 16.5195 28.1655
169 1 Ar 6.11792 16.5358 2.52237
170 1 Ar 6.63213 16.1696 5.90282
171 1 Ar 6.8408 16.2693 9.27374
172 1 Ar 6.54275 16.3586 12.6148
173 1 Ar 6.18468 15.9498 16.2318
174 1 Ar 6.03705 16.5782 19.369
175 1 Ar 6.6828 16.3942 23.6451
176 1 Ar 6.82095 19.6563 27.688
177 1 Ar 6.1069 19.9813 2.62441
178 1 Ar 6.36068 19.4779 6.14717
179 1 Ar 6.35936 20.0259 9.82092
180 1 Ar 6.81376 19.7041 13.0735
181 1 Ar 5.90591 19.3861 16.3601
182 1 Ar 5.80819 19.8461 19.5518
183 1 Ar 5.9354 19.352 22.9103
184 1 Ar 6.32889 23.2152 28.1793
185 1 Ar 5.32965 23.3941 3.05527
186 1 Ar 6.11055 22.894 6.63842
187 1 Ar 6.27997 23.8253 9.96749
188 1 Ar 5.87561 22.899 12.9827
189 1 Ar 6.81094 23.5651 16.442
190 1 Ar 6.71002 23.1449 21.379
191 1 Ar 6.48325 22.4986 24.5198
192 1 Ar 9.71256 28.0874 26.6684
193 1 Ar 9.61883 28.3036 1.89707
194 1 Ar 9.5968 27.6987 5.50952
195 1 Ar 10.0666 27.9743 9.45083
196 1 Ar 9.12166 28.2146 12.9497
197 1 Ar 10.2033 0.0779926 16.0172
198 1 Ar 10.0602 27.8546 19.4579
199 1 Ar 9.08163 28.4962 23.0661
200 1 Ar 9.68209 2.94538 28.2849
201 1 Ar 8.94461 3.4037 2.7336
202 1 Ar 9.8743 2.43743 6.07067
203 1 Ar 9.95514 3.24701 9.46781
204 1 Ar 9.68364 2.60719 12.773
205 1 Ar 9.56067 3.12115 16.0881
206 1 Ar 9.93151 2.2353 19.5163
207 1 Ar 8.91172 3.0919 23.7157
208 1 Ar 9.80838 6.38115 27.7813
209 1 Ar 9.35022 6.77638 3.10901
210 1 Ar 10.2606 5.90378 6.28765
211 1 Ar 9.56028 6.92862 9.15875
212 1 Ar 9.28521 6.44214 12.4495
213 1 Ar 9.68986 6.72408 16.067
214 1 Ar 9.60879 5.71667 19.3189
215 1 Ar 10.0451 6.61171 24.1467
216 1 Ar 9.88036 9.79336 28.5026
217 1 Ar 9.65708 10.1118 2.82945
218 1 Ar 9.35407 9.14872 6.17565
219 1 Ar 9.90504 10.214 9.66789
220 1 Ar 9.73457 9.80757 12.8524
221 1 Ar 9.93154 9.94895 16.2963
222 1 Ar 9.50759 9.41326 19.5679
223 1 Ar 9.33383 9.52379 22.8618
224 1 Ar 9.31761 13.3228 27.0454
225 1 Ar 9.22687 13.3435 2.3474
226 1 Ar 9.79477 12.9714 5.9789
227 1 Ar 9.75302 13.4645 9.52781
228 1 Ar 9.84457 13.1175 12.9878
229 1 Ar 10.1627 13.1861 16.6081
230 1 Ar 9.5345 12.7791 20.1107
231 1 Ar 10.1333 12.5813 24.0643
232 1 Ar 9.46547 16.1527 0.406202
233 1 Ar 9.69761 16.4543 3.80128
234 1 Ar 9.58954 16.0662 6.91492
235 1 Ar 10.2479 16.4445 10.0425
236 1 Ar 9.81952 16.2199 13.2358
237 1 Ar 9.80864 16.5865 16.526
238 1 Ar 9.52558 15.9818 20.0156
239 1 Ar 9.90799 16.2315 24.346
240 1 Ar 10.2394 19.7736 27.8028
241 1 Ar 9.24082 19.4965 3.01759
242 1 Ar 9.80757 19.4847 6.31169
243 1 Ar 9.69903 19.7806 9.48896
244 1 Ar 10.0488 19.7327 12.5781
245 1 Ar 9.24775 20.3301 15.7914
246 1 Ar 9.55247 19.6145 19.3606
247 1 Ar 9.45811 20.1397 23.2174
248 1 Ar 9.68905 24.1507 27.9496
249 1 Ar 9.09129 23.5389 2.21602
250 1 Ar 9.64282 23.2668 5.86653
251 1 Ar 9.62895 23.0471 9.06146
252 1 Ar 9.29614 24.1119 12.3542
253 1 Ar 10.2895 23.3873 15.8578
254 1 Ar 9.54646 22.9143 19.2804
255 1 Ar 9.95616 23.6264 22.9199
256 1 Ar 12.5719 29.0052 0.265651
257 1 Ar 12.5053 28.4079 3.7087
258 1 Ar 12.7684 28.2508 7.73494
259 1 Ar 13.3888 26.4564 11.1627
260 1 Ar 12.2124 0.249394 13.1515
261 1 Ar 13.2102 26.9114 16.4134
262 1 Ar 12.9837 0.440458 18.9202
263 1 Ar 13.5176 0.174053 22.7126
264 1 Ar 12.9594 3.36982 28.2753
265 1 Ar 12.2124 2.94705 2.55003
266 1 Ar 13.1976 3.21653 6.37883
267 1 Ar 13.2998 2.1229 9.99133
268 1 Ar 13.32 3.51259 12.7813
269 1 Ar 12.9009 2.56591 16.0035
270 1 Ar 13.1232 3.60557 19.1453
271 1 Ar 12.8273 3.44215 22.9324
272 1 Ar 12.9213 6.45478 0.33934
273 1 Ar 12.797 6.36891 3.78152
274 1 Ar 13.6852 6.61163 6.75761
275 1 Ar 12.5666 5.55955 9.84373
276 1 Ar 12.8258 6.52601 13.3953
277 1 Ar 12.8065 5.78467 16.6591
278 1 Ar 12.8996 7.0889 19.7464
279 1 Ar 13.1397 7.05427 23.4871
280 1 Ar 13.2814 9.54567 28.1723
281 1 Ar 12.6921 9.40807 2.60069
282 1 Ar 12.6653 9.54694 5.8845
283 1 Ar 12.9619 9.11356 9.31154
284 1 Ar 12.7922 9.65046 12.6835
285 1 Ar 13.2035 9.44584 16.0917
286 1 Ar 13.18 10.2377 19.4479
287 1 Ar 12.9479 10.4486 22.8584
288 1 Ar 12.5961 12.855 28.0517
289 1 Ar 12.4949 12.9951 3.1049
290 1 Ar 13.4473 12.5971 6.45515
291 1 Ar 12.8207 13.0625 10.0309
292 1 Ar 13.4436 12.727 13.5088
293 1 Ar 13.3022 12.6485 16.6129
294 1 Ar 12.8166 13.5534 20.9292
295 1 Ar 13.0359 13.9596 24.4691
296 1 Ar 12.7432 15.8853 28.3961
297 1 Ar 13.2416 16.3694 2.51376
298 1 Ar 12.9554 16.5864 5.80696
299 1 Ar 13.3612 16.6401 9.25928
300 1 Ar 12.9361 15.9279 12.4831
301 1 Ar 13.0349 16.0262 16.012
302 1 Ar 12.5851 16.3217 19.5105
303 1 Ar 13.1152 16.9084 22.7825
304 1 Ar 13.4457 19.3051 28.9349
305 1 Ar 12.7985 19.5616 3.47079
306 1 Ar 13.2384 19.6982 7.0624
307 1 Ar 12.7187 20.0244 10.162
308 1 Ar 13.2848 19.2384 13.1609
309 1 Ar 12.2313 19.3876 16.3509
310 1 Ar 13.4102 19.5243 19.7316
311 1 Ar 12.9666 20.0822 22.9718
312 1 Ar 12.9803 22.4653 28.223
313 1 Ar 12.8625 23.3165 3.05571
314 1 Ar 13.3099 23.873 6.37063
315 1 Ar 12.8491 23.3637 9.69928
316 1 Ar 13.3075 22.9746 13.3222
317 1 Ar 13.3809 23.0404 16.6885
318 1 Ar 12.8343 23.3901 20.162
319 1 Ar 13.096 23.9196 23.7819
320 1 Ar 16.0469 28.1963 28.5336
321 1 Ar 16.8623 28.8339 3.5305
322 1 Ar 15.7107 27.3841 6.43672
323 1 Ar 16.0509 28.861 9.40749
324 1 Ar 15.5954 28.5277 12.869
325 1 Ar 16.9981 27.7159 15.9336
326 1 Ar 15.975 28.4656 18.8376
327 1 Ar 17.1851 27.63 22.357
328 1 Ar 16.4048 2.47691 29.011
329 1 Ar 16.3012 3.31801 3.33191
330 1 Ar 16.3467 2.23068 6.32964
331 1 Ar 17.0686 3.02542 9.56746
332 1 Ar 16.4867 2.63336 12.8693
333 1 Ar 16.0435 2.65294 16.3287
334 1 Ar 16.354 2.71266 20.0516
335 1 Ar 16.0619 3.03533 23.4533
336 1 Ar 15.9944 6.0353 28.4252
337 1 Ar 16.2817 6.26178 2.94903
338 1 Ar 16.9874 6.36411 6.28388
339 1 Ar 15.8035 6.42968 9.81997
340 1 Ar 16.1474 6.39763 13.0954
341 1 Ar 16.1134 6.26207 16.292
342 1 Ar 16.249 6.34766 19.5104
343 1 Ar 16.4158 6.31335 22.7458
344 1 Ar 16.62 9.35409 28.7674
345 1 Ar 16.3662 9.75358 3.02578
346 1 Ar 15.8466 9.43009 6.50949
347 1 Ar 16.9372 9.75826 9.75713
348 1 Ar 15.8546 9.71275 13.1379
349 1 Ar 16.7751 9.73509 16.5823
350 1 Ar 16.1827 9.61204 20.5
351 1 Ar 15.9445 9.6775 24.3263
352 1 Ar 16.5798 13.1025 28.7019
353 1 Ar 15.6719 12.781 3.4243
354 1 Ar 16.9392 12.3533 6.78519
355 1 Ar 15.9319 13.0764 9.75588
356 1 Ar 17.0795 12.651 12.8356
357 1 Ar 16.5737 12.8603 16.3156
358 1 Ar 16.7507 12.9375 19.6407
359 1 Ar 15.9457 12.9655 23.1711
360 1 Ar 15.977 16.9784 28.7036
361 1 Ar 16.9107 15.7535 2.83371
362 1 Ar 16.0955 15.7784 6.82631
363 1 Ar 16.4225 16.1853 10.5961
364 1 Ar 16.1407 15.9713 13.8846
365 1 Ar 16.7837 16.3054 17.1524
366 1 Ar 16.1105 16.3499 20.8171
367 1 Ar 16.4506 16.1064 24.5319
368 1 Ar 16.6165 19.6715 27.3961
369 1 Ar 16.0631 19.1396 2.8477
370 1 Ar 16.4885 19.6604 6.18525
371 1 Ar 15.9625 19.9725 9.77857
372 1 Ar 16.9298 19.8963 13.3749
373 1 Ar 15.5126 19.395 16.4273
374 1 Ar 17.0167 20.5785 20.027
375 1 Ar 16.4215 19.9926 23.7504
376 1 Ar 16.1878 23.3269 28.4636
377 1 Ar 16.7848 23.0099 3.51345
378 1 Ar 16.6118 22.7115 6.75055
379 1 Ar 16.0171 24.048 9.8916
380 1 Ar 16.6638 23.8231 13.1872
381 1 Ar 17.1679 22.7829 16.6218
382 1 Ar 15.6514 25.2374 19.4209
383 1 Ar 16.3215 23.9694 23.0787
384 1 Ar 19.549 28.5139 28.3399
385 1 Ar 20.0674 28.0368 2.52504
386 1 Ar 19.2537 28.1802 6.36346
387 1 Ar 19.702 27.3665 10.0491
388 1 Ar 19.0375 28.6025 12.8648
389 1 Ar 20.6896 28.1619 15.9144
390 1 Ar 19.4917 28.8288 19.1184
391 1 Ar 20.3499 28.7943 22.7366
392 1 Ar 20.0105 2.66697 26.882
393 1 Ar 19.2375 2.14683 1.98847
394 1 Ar 19.9954 2.15332 5.57872
395 1 Ar 20.2521 2.80182 9.14869
396 1 Ar 20.1751 2.64716 13.3553
397 1 Ar 19.5685 2.25507 16.7839
398 1 Ar 19.6811 3.08381 20.0299
399 1 Ar 19.1935 2.56741 23.7369
400 1 Ar 19.251 5.59275 28.6756
401 1 Ar 19.605 6.00416 2.8663
402 1 Ar 20.1855 5.81155 6.05283
403 1 Ar 18.8649 6.58997 9.20362
404 1 Ar 19.4795 6.07952 12.5066
405 1 Ar 19.4259 5.96641 16.1255
406 1 Ar 19.7933 6.2154 20.3606
407 1 Ar 19.6773 5.94584 23.646
408 1 Ar 19.8641 9.16119 28.8872
409 1 Ar 19.6256 9.39931 3.52814
410 1 Ar 19.3484 9.75365 6.99234
411 1 Ar 20.4884 9.55927 10.0109
412 1 Ar 19.4635 9.85268 13.2039
413 1 Ar 19.8877 9.36029 16.2897
414 1 Ar 19.8778 9.34639 19.8202
415 1 Ar 19.981 9.10648 23.2638
416 1 Ar 20.2467 12.662 28.4499
417 1 Ar 19.2485 13.0992 2.62762
418 1 Ar 20.1517 12.912 5.8102
419 1 Ar 19.1973 13.023 9.4615
420 1 Ar 20.7307 12.8909 12.804
421 1 Ar 19.7857 13.3263 15.9347
422 1 Ar 20.3763 12.7545 19.323
423 1 Ar 19.236 12.6186 23.0918
424 1 Ar 19.3742 15.9101 28.4908
425 1 Ar 20.8837 16.4926 2.97356
426 1 Ar 19.535 16.2323 6.16168
427 1 Ar 19.6713 16.6623 9.34087
428 1 Ar 19.4036 16.1274 12.5466
429 1 Ar 19.9987 16.5669 16.1617
430 1 Ar 19.5652 16.0969 19.3849
431 1 Ar 19.1808 15.8587 22.8607
432 1 Ar 20.4932 19.6261 28.154
433 1 Ar 19.3878 20.3889 3.37402
434 1 Ar 20.0048 19.5441 6.87953
435 1 Ar 19.0859 19.9481 10.1925
436 1 Ar 20.1693 19.6763 13.2561
437 1 Ar 20.0551 20.0572 16.5727
438 1 Ar 20.7541 19.267 20.2603
439 1 Ar 19.7647 19.4333 23.4711
440 1 Ar 19.8354 23.5659 27.1911
441 1 Ar 19.8285 24.7124 2.38086
442 1 Ar 20.207 22.7099 5.61305
443 1 Ar 21.1553 24.4337 8.90295
444 1 Ar 20.0914 23.0572 12.0626