ITEM: TIMESTEP
-1
ITEM: NUMBER OF ATOMS
500
ITEM: BOX BOUNDS pp pp pp
0 36.6254
0 36.6254
0 36.6254
ITEM: ATOMS id type element xu yu zu
0 1 Ar 0 0 0
1 1 Ar 0 0 4.06949
2 1 Ar 0 0 8.13898
3 1 Ar 0 0 12.2085
4 1 Ar 0 0 16.278
5 1 Ar 0 0 20.3474
6 1 Ar 0 0 24.4169
7 1 Ar 0 0 28.4864
8 1 Ar 0 4.06949 0
9 1 Ar 0 4.06949 4.06949
10 1 Ar 0 4.06949 8.13898
11 1 Ar 0 4.06949 12.2085
12 1 Ar 0 4.06949 16.278
13 1 Ar 0 4.06949 20.3474
14 1 Ar 0 4.06949 24.4169
15 1 Ar 0 4.06949 28.4864
16 1 Ar 0 8.13898 0
17 1 Ar 0 8.13898 4.06949
18 1 Ar 0 8.13898 8.13898
19 1 Ar 0 8.13898 12.2085
20 1 Ar 0 8.13898 16.278
21 1 Ar 0 8.13898 20.3474
22 1 Ar 0 8.13898 24.4169
23 1 Ar 0 8.13898 28.4864
24 1 Ar 0 12.2085 0
25 1 Ar 0 12.2085 4.06949
26 1 Ar 0 12.2085 8.13898
27 1 Ar 0 12.2085 12.2085
28 1 Ar 0 12.2085 16.278
29 1 Ar 0 12.2085 20.3474
30 1 Ar 0 12.2085 24.4169
31 1 Ar 0 12.2085 28.4864
32 1 Ar 0 16.278 0
33 1 Ar 0 16.278 4.06949
34 1 Ar 0 16.278 8.13898
35 1 Ar 0 16.278 12.2085
36 1 Ar 0 16.278 16.278
37 1 Ar 0 16.278 20.3474
38 1 Ar 0 16.278 24.4169
39 1 Ar 0 16.278 28.4864
40 1 Ar 0 20.3474 0
41 1 Ar 0 20.3474 4.06949
42 1 Ar 0 20.3474 8.13898
43 1 Ar 0 20.3474 12.2085
44 1 Ar 0 20.3474 16.278
45 1 Ar 0 20.3474 20.3474
46 1 Ar 0 20.3474 24.4169
47 1 Ar 0 20.3474 28.4864
48 1 Ar 0 24.4169 0
49 1 Ar 0 24.4169 4.06949
50 1 Ar 0 24.4169 8.13898
51 1 Ar 0 24.4169 12.2085
52 1 Ar 0 24.4169 16.278
53 1 Ar 0 24.4169 20.3474
54 1 Ar 0 24.4169 24.4169
55 1 Ar 0 24.4169 28.4864
56 1 Ar 0 28.4864 0
57 1 Ar 0 28.4864 4.06949
58 1 Ar 0 28.4864 8.13898
59 1 Ar 0 28.4864 12.2085
60 1 Ar 0 28.4864 16.278
61 1 Ar 0 28.4864 20.3474
62 1 Ar 0 28.4864 24.4169
63 1 Ar 0 28.4864 28.4864
64 1 Ar 4.06949 0 0
65 1 Ar 4.06949 0 4.06949
66 1 Ar 4.06949 0 8.13898
67 1 Ar 4.06949 0 12.2085
68 1 Ar 4.06949 0 16.278
69 1 Ar 4.06949 0 20.3474
70 1 Ar 4.06949 0 24.4169
71 1 Ar 4.06949 0 28.4864
72 1 Ar 4.06949 4.06949 0
73 1 Ar 4.06949 4.06949 4.06949
74 1 Ar 4.06949 4.06949 8.13898
75 1 Ar 4.06949 4.06949 12.2085
76 1 Ar 4.06949 4.06949 16.278
77 1 Ar 4.06949 4.06949 20.3474
78 1 Ar 4.06949 4.06949 24.4169
79 1 Ar 4.06949 4.06949 28.4864
80 1 Ar 4.06949 8.13898 0
81 1 Ar 4.06949 8.13898 4.06949
82 1 Ar 4.06949 8.13898 8.13898
83 1 Ar 4.06949 8.13898 12.2085
84 1 Ar 4.06949 8.13898 16.278
85 1 Ar 4.06949 8.13898 20.3474
86 1 Ar 4.06949 8.13898 24.4169
87 1 Ar 4.06949 8.13898 28.4864
88 1 Ar 4.06949 12.2085 0
89 1 Ar 4.06949 12.2085 4.06949
90 1 Ar 4.06949 12.2085 8.13898
91 1 Ar 4.06949 12.2085 12.2085
92 1 Ar 4.06949 12.2085 16.278
93 1 Ar 4.06949 12.2085 20.3474
94 1 Ar 4.06949 12.2085 24.4169
95 1 Ar 4.06949 12.2085 28.4864
96 1 Ar 4.06949 16.278 0
97 1 Ar 4.06949 16.278 4.06949
98 1 Ar 4.06949 16.278 8.13898
99 1 Ar 4.06949 16.278 12.2085
100 1 Ar 4.06949 16.278 16.278
101 1 Ar 4.06949 16.278 20.3474
102 1 Ar 4.06949 16.278 24.4169
103 1 Ar 4.06949 16.278 28.4864
104 1 Ar 4.06949 20.3474 0
105 1 Ar 4.06949 20.3474 4.06949
106 1 Ar 4.06949 20.3474 8.13898
107 1 Ar 4.06949 20.3474 12.2085
108 1 Ar 4.06949 20.3474 16.278
109 1 Ar 4.06949 20.3474 20.3474
110 1 Ar 4.06949 20.3474 24.4169
111 1 Ar 4.06949 20.3474 28.4864
112 1 Ar 4.06949 24.4169 0
113 1 Ar 4.06949 24.4169 4.06949
114 1 Ar 4.06949 24.4169 8.13898
115 1 Ar 4.06949 24.4169 12.2085
116 1 Ar 4.06949 24.4169 16.278
117 1 Ar 4.06949 24.4169 20.3474
118 1 Ar 4.06949 24.4169 24.4169
119 1 Ar 4.06949 24.4169 28.4864
120 1 Ar 4.06949 28.4864 0
121 1 Ar 4.06949 28.4864 4.06949
122 1 Ar 4.06949 28.4864 8.13898
123 1 Ar 4.06949 28.4864 12.2085
124 1 Ar 4.06949 28.4864 16.278
125 1 Ar 4.06949 28.4864 20.3474
126 1 Ar 4.06949 28.4864 24.4169
127 1 Ar 4.06949 28.4864 28.4864
128 1 Ar 8.13898 0 0
129 1 Ar 8.13898 0 4.06949
130 1 Ar 8.13898 0 8.13898
131 1 Ar 8.13898 0 12.2085
132 1 Ar 8.13898 0 16.278
133 1 Ar 8.13898 0 20.3474
134 1 Ar 8.13898 0 24.4169
135 1 Ar 8.13898 0 28.4864
136 1 Ar 8.13898 4.06949 0
137 1 Ar 8.13898 4.06949 4.06949
138 1 Ar 8.13898 4.06949 8.13898
139 1 Ar 8.13898 4.06949 12.2085
140 1 Ar 8.13898 4.06949 16.278
141 1 Ar 8.13898 4.06949 20.3474
142 1 Ar 8.13898 4.06949 24.4169
143 1 Ar 8.13898 4.06949 28.4864
144 1 Ar 8.13898 8.13898 0
145 1 Ar 8.13898 8.13898 4.06949
146 1 Ar 8.13898 8.13898 8.13898
147 1 Ar 8.13898 8.13898 12.2085
148 1 Ar 8.13898 8.13898 16.278
149 1 Ar 8.13898 8.13898 20.3474
150 1 Ar 8.13898 8.13898 24.4169
151 1 Ar 8.13898 8.13898 28.4864
152 1 Ar 8.13898 12.2085 0
153 1 Ar 8.13898 12.2085 4.06949
154 1 Ar 8.13898 12.2085 8.13898
155 1 Ar 8.13898 12.2085 12.2085
156 1 Ar 8.13898 12.2085 16.278
157 1 Ar 8.13898 12.2085 20.3474
158 1 Ar 8.13898 12.2085 24.4169
159 1 Ar 8.13898 12.2085 28.4864
160 1 Ar 8.13898 16.278 0
161 1 Ar 8.13898 16.278 4.06949
162 1 Ar 8.13898 16.278 8.13898
163 1 Ar 8.13898 16.278 12.2085
164 1 Ar 8.13898 16.278 16.278
165 1 Ar 8.13898 16.278 20.3474
166 1 Ar 8.13898 16.278 24.4169
167 1 Ar 8.13898 16.278 28.4864
168 1 Ar 8.13898 20.3474 0
169 1 Ar 8.13898 20.3474 4.06949
170 1 Ar 8.13898 20.3474 8.13898
171 1 Ar 8.13898 20.3474 12.2085
172 1 Ar 8.13898 20.3474 16.278
173 1 Ar 8.13898 20.3474 20.3474
174 1 Ar 8.13898 20.3474 24.4169
175 1 Ar 8.13898 20.3474 28.4864
176 1 Ar 8.13898 24.4169 0
177 1 Ar 8.13898 24.4169 4.06949
178 1 Ar 8.13898 24.4169 8.13898
179 1 Ar 8.13898 24.4169 12.2085
180 1 Ar 8.13898 24.4169 16.278
181 1 Ar 8.13898 24.4169 20.3474
182 1 Ar 8.13898 24.4169 24.4169
183 1 Ar 8.13898 24.4169 28.4864
184 1 Ar 8.13898 28.4864 0
185 1 Ar 8.13898 28.4864 4.06949
186 1 Ar 8.13898 28.4864 8.13898
187 1 Ar 8.13898 28.4864 12.2085
188 1 Ar 8.13898 28.4864 16.278
189 1 Ar 8.13898 28.4864 20.3474
190 1 Ar 8.13898 28.4864 24.4169
191 1 Ar 8.13898 28.4864 28.4864
192 1 Ar 12.2085 0 0
193 1 Ar 12.2085 0 4.06949
194 1 Ar 12.2085 0 8.13898
195 1 Ar 12.2085 0 12.2085
196 1 Ar 12.2085 0 16.278
197 1 Ar 12.2085 0 20.3474
198 1 Ar 12.2085 0 24.4169
199 1 Ar 12.2085 0 28.4864
200 1 Ar 12.2085 4.06949 0
201 1 Ar 12.2085 4.06949 4.06949
202 1 Ar 12.2085 4.06949 8.13898
203 1 Ar 12.2085 4.06949 12.2085
204 1 Ar 12.2085 4.06949 16.278
205 1 Ar 12.2085 4.06949 20.3474
206 1 Ar 12.2085 4.06949 24.4169
207 1 Ar 12.2085 4.06949 28.4864
208 1 Ar 12.2085 8.13898 0
209 1 Ar 12.2085 8.13898 4.06949
210 1 Ar 12.2085 8.13898 8.13898
211 1 Ar 12.2085 8.13898 12.2085
212 1 Ar 12.2085 8.13898 16.278
213 1 Ar 12.2085 8.13898 20.3474
214 1 Ar 12.2085 8.13898 24.4169
215 1 Ar 12.2085 8.13898 28.4864
216 1 Ar 12.2085 12.2085 0
217 1 Ar 12.2085 12.2085 4.06949
218 1 Ar 12.2085 12.2085 8.13898
219 1 Ar 12.2085 12.2085 12.2085
220 1 Ar 12.2085 12.2085 16.278
221 1 Ar 12.2085 12.2085 20.3474
222 1 Ar 12.2085 12.2085 24.4169
223 1 Ar 12.2085 12.2085 28.4864
224 1 Ar 12.2085 16.278 0
225 1 Ar 12.2085 16.278 4.06949
226 1 Ar 12.2085 16.278 8.13898
227 1 Ar 12.2085 16.278 12.2085
228 1 Ar 12.2085 16.278 16.278
229 1 Ar 12.2085 16.278 20.3474
230 1 Ar 12.2085 16.278 24.4169
231 1 Ar 12.2085 16.278 28.4864
232 1 Ar 12.2085 20.3474 0
233 1 Ar 12.2085 20.3474 4.06949
234 1 Ar 12.2085 20.3474 8.13898
235 1 Ar 12.2085 20.3474 12.2085
236 1 Ar 12.2085 20.3474 16.278
237 1 Ar 12.2085 20.3474 20.3474
238 1 Ar 12.2085 20.3474 24.4169
239 1 Ar 12.2085 20.3474 28.4864
240 1 Ar 12.2085 24.4169 0
241 1 Ar 12.2085 24.4169 4.06949
242 1 Ar 12.2085 24.4169 8.13898
243 1 Ar 12.2085 24.4169 12.2085
244 1 Ar 12.2085 24.4169 16.278
245 1 Ar 12.2085 24.4169 20.3474
246 1 Ar 12.2085 24.4169 24.4169
247 1 Ar 12.2085 24.4169 28.4864
248 1 Ar 12.2085 28.4864 0
249 1 Ar 12.2085 28.4864 4.06949
250 1 Ar 12.2085 28.4864 8.13898
251 1 Ar 12.2085 28.4864 12.2085
252 1 Ar 12.2085 28.4864 16.278
253 1 Ar 12.2085 28.4864 20.3474
254 1 Ar 12.2085 28.4864 24.4169
255 1 Ar 12.2085 28.4864 28.4864
256 1 Ar 16.278 0 0
257 1 Ar 16.278 0 4.06949
258 1 Ar 16.278 0 8.13898
259 1 Ar 16.278 0 12.2085
260 1 Ar 16.278 0 16.278
261 1 Ar 16.278 0 20.3474
262 1 Ar 16.278 0 24.4169
263 1 Ar 16.278 0 28.4864
264 1 Ar 16.278 4.06949 0
265 1 Ar 16.278 4.06949 4.06949
266 1 Ar 16.278 4.06949 8.13898
267 1 Ar 16.278 4.06949 12.2085
268 1 Ar 16.278 4.06949 16.278
269 1 Ar 16.278 4.06949 20.3474
270 1 Ar 16.278 4.06949 24.4169
271 1 Ar 16.278 4.06949 28.4864
272 1 Ar 16.278 8.13898 0
273 1 Ar 16.278 8.13898 4.06949
274 1 Ar 16.278 8.13898 8.13898
275 1 Ar 16.278 8.13898 12.2085
276 1 Ar 16.278 8.13898 16.278
277 1 Ar 16.278 8.13898 20.3474
278 1 Ar 16.278 8.13898 24.4169
279 1 Ar 16.278 8.13898 28.4864
280 1 Ar 16.278 12.2085 0
281 1 Ar 16.278 12.2085 4.06949
282 1 Ar 16.278 12.2085 8.13898
283 1 Ar 16.278 12.2085 12.2085
284 1 Ar 16.278 12.2085 16.278
285 1 Ar 16.278 12.2085 20.3474
286 1 Ar 16.278 12.2085 24.4169
287 1 Ar 16.278 12.2085 28.4864
288 1 Ar 16.278 16.278 0
289 1 Ar 16.278 16.278 4.06949
290 1 Ar 16.278 16.278 8.13898
291 1 Ar 16.278 16.278 12.2085
292 1 Ar 16.278 16.278 16.278
293 1 Ar 16.278 16.278 20.3474
294 1 Ar 16.278 16.278 24.4169
295 1 Ar 16.278 16.278 28.4864
296 1 Ar 16.278 20.3474 0
297 1 Ar 16.278 20.3474 4.06949
298 1 Ar 16.278 20.3474 8.13898
299 1 Ar 16.278 20.3474 12.2085
300 1 Ar 16.278 20.3474 16.278
301 1 Ar 16.278 20.3474 20.3474
302 1 Ar 16.278 20.3474 24.4169
303 1 Ar 16.278 20.3474 28.4864
304 1 Ar 16.278 24.4169 0
305 1 Ar 16.278 24.4169 4.06949
306 1 Ar 16.278 24.4169 8.13898
307 1 Ar 16.278 24.4169 12.2085
308 1 Ar 16.278 24.4169 16.278
309 1 Ar 16.278 24.4169 20.3474
310 1 Ar 16.278 24.4169 24.4169
311 1 Ar 16.278 24.4169 28.4864
312 1 Ar 16.278 28.4864 0
313 1 Ar 16.278 28.4864 4.06949
314 1 Ar 16.278 28.4864 8.13898
315 1 Ar 16.278 28.4864 12.2085
316 1 Ar 16.278 28.4864 16.278
317 1 Ar 16.278 28.4864 20.3474
318 1 Ar 16.278 28.4864 24.4169
319 1 Ar 16.278 28.4864 28.4864
320 1 Ar 20.3474 0 0
321 1 Ar 20.3474 0 4.06949
322 1 Ar 20.3474 0 8.13898
323 1 Ar 20.3474 0 12.2085
324 1 Ar 20.3474 0 16.278
325 1 Ar 20.3474 0 20.3474
326 1 Ar 20.3474 0 24.4169
327 1 Ar 20.3474 0 28.4864
328 1 Ar 20.3474 4.06949 0
329 1 Ar 20.3474 4.06949 4.06949
330 1 Ar 20.3474 4.06949 8.13898
331 1 Ar 20.3474 4.06949 12.2085
332 1 Ar 20.3474 4.06949 16.278
333 1 Ar 20.3474 4.06949 20.3474
334 1 Ar 20.3474 4.06949 24.4169
335 1 Ar 20.3474 4.06949 28.4864
336 1 Ar 20.3474 8.13898 0
337 1 Ar 20.3474 8.13898 4.06949
338 1 Ar 20.3474 8.13898 8.13898
339 1 Ar 20.3474 8.13898 12.2085
340 1 Ar 20.3474 8.13898 16.278
341 1 Ar 20.3474 8.13898 20.3474
342 1 Ar 20.3474 8.13898 24.4169
343 1 Ar 20.3474 8.13898 28.4864
344 1 Ar 20.3474 12.2085 0
345 1 Ar 20.3474 12.2085 4.06949
346 1 Ar 20.3474 12.2085 8.13898
347 1 Ar 20.3474 12.2085 12.2085
348 1 Ar 20.3474 12.2085 16.278
349 1 Ar 20.3474 12.2085 20.3474
350 1 Ar 20.3474 12.2085 24.4169
351 1 Ar 20.3474 12.2085 28.4864
352 1 Ar 20.3474 16.278 0
353 1 Ar 20.3474 16.278 4.06949
354 1 Ar 20.3474 16.278 8.13898
355 1 Ar 20.3474 16.278 12.2085
356 1 Ar 20.3474 16.278 16.278
357 1 Ar 20.3474 16.278 20.3474
358 1 Ar 20.3474 16.278 24.4169
359 1 Ar 20.3474 16.278 28.4864
360 1 Ar 20.3474 20.3474 0
361 1 Ar 20.3474 20.3474 4.06949
362 1 Ar 20.3474 20.3474 8.13898
363 1 Ar 20.3474 20.3474 12.2085
364 1 Ar 20.3474 20.3474 16.278
365 1 Ar 20.3474 20.3474 20.3474
366 1 Ar 20.3474 20.3474 24.4169
367 1 Ar 20.3474 20.3474 28.4864
368 1 Ar 20.3474 24.4169 0
369 1 Ar 20.3474 24.4169 4.06949
370 1 Ar 20.3474 24.4169 8.13898
371 1 Ar 20.3474 24.4169 12.2085
372 1 Ar 20.3474 24.4169 16.278
373 1 Ar 20.3474 24.4169 20.3474
374 1 Ar 20.3474 24.4169 24.4169
375 1 Ar 20.3474 24.4169 28.4864
376 1 Ar 20.3474 28.4864 0
377 1 Ar 20.3474 28.4864 4.06949
378 1 Ar 20.3474 28.4864 8.13898
379 1 Ar 20.3474 28.4864 12.2085
380 1 Ar 20.3474 28.4864 16.278
381 1 Ar 20.3474 28.4864 20.3474
382 1 Ar 20.3474 28.4864 24.4169
383 1 Ar 20.3474 28.4864 28.4864
384 1 Ar 24.4169 0 0
385 1 Ar 24.4169 0 4.06949
386 1 Ar 24.4169 0 8.13898
387 1 Ar 24.4169 0 12.2085
388 1 Ar 24.4169 0 16.278
389 1 Ar 24.4169 0 20.3474
390 1 Ar 24.4169 0 24.4169
391 1 Ar 24.4169 0 28.4864
392 1 Ar 24.4169 4.06949 0
393 1 Ar 24.4169 4.06949 4.06949
394 1 Ar 24.4169 4.06949 8.13898
395 1 Ar 24.4169 4.06949 12.2085
396 1 Ar 24.4169 4.06949 16.278
397 1 Ar 24.4169 4.06949 20.3474
398 1 Ar 24.4169 4.06949 24.4169
399 1 Ar 24.4169 4.06949 28.4864
400 1 Ar 24.4169 8.13898 0
401 1 Ar 24.4169 8.13898 4.06949
402 1 Ar 24.4169 8.13898 8.13898
403 1 Ar 24.4169 8.13898 12.2085
404 1 Ar 24.4169 8.13898 16.278
405 1 Ar 24.4169 8.13898 20.3474
406 1 Ar 24.4169 8.13898 24.4169
407 1 Ar 24.4169 8.13898 28.4864
408 1 Ar 24.4169 12.2085 0
409 1 Ar 24.4169 12.2085 4.06949
410 1 Ar 24.4169 12.2085 8.13898
411 1 Ar 24.4169 12.2085 12.2085
412 1 Ar 24.4169 12.2085 16.278
413 1 Ar 24.4169 12.2085 20.3474
414 1 Ar 24.4169 12.2085 24.4169
415 1 Ar 24.4169 12.2085 28.4864
416 1 Ar 24.4169 16.278 0
417 1 Ar 24.4169 16.278 4.06949
418 1 Ar 24.4169 16.278 8.13898
419 1 Ar 24.4169 16.278 12.2085
420 1 Ar 24.4169 16.278 16.278
421 1 Ar 24.4169 16.278 20.3474
422 1 Ar 24.4169 16.278 24.4169
423 1 Ar 24.4169 16.278 28.4864
424 1 Ar 24.4169 20.3474 0
425 1 Ar 24.4169 20.3474 4.06949
426 1 Ar 24.4169 20.3474 8.13898
427 1 Ar 24.4169 20.3474 12.2085
428 1 Ar 24.4169 20.3474 16.278
429 1 Ar 24.4169 20.3474 20.3474
430 1 Ar 24.4169 20.3474 24.4169
431 1 Ar 24.4169 20.3474 28.4864
432 1 Ar 24.4169 24.4169 0
433 1 Ar 24.4169 24.4169 4.06949
434 1 Ar 24.4169 24.4169 8.13898
435 1 Ar 24.4169 24.4169 12.2085
436 1 Ar 24.4169 24.4169 16.278
437 1 Ar 24.4169 24.4169 20.3474
438 1 Ar 24.4169 24.4169 24.4169
439 1 Ar 24.4169 24.4169 28.4864
440 1 Ar 24.4169 28.4864 0
441 1 Ar 24.4169 28.4864 4.06949
442 1 Ar 24.4169 28.4864 8.13898
443 1 Ar 24.4169 28.4864 12.2085
444 1 Ar 24.4169 28.4864 16.278
445 1 Ar 24.4169 28.4864 20.3474
446 1 Ar 24.4169 28.4864 24.4169
447 1 Ar 24.4169 28.4864 28.4864
448 1 Ar 28.4864 0 0
449 1 Ar 28.4864 0 4.06949
450 1 Ar 28.4864 0 8.13898
451 1 Ar 28.4864 0 12.2085
452 1 Ar 28.4864 0 16.278
453 1 Ar 28.4864 0 20.3474
454 1 Ar 28.4864 0 24.4169
455 1 Ar 28.4864 0 28.4864
456 1 Ar 28.4864 4.06949 0
457 1 Ar 28.4864 4.06949 4.06949
458 1 Ar 28.4864 4.06949 8.13898
459 1 Ar 28.4864 4.06949 12.2085
460 1 Ar 28.4864 4.06949 16.278
461 1 Ar 28.4864 4.06949 20.3474
462 1 Ar 28.4864 4.06949 24.4169
463 1 Ar 28.4864 4.06949 28.4864
464 1 Ar 28.4864 8.13898 0
465 1 Ar 28.4864 8.13898 4.06949
466 1 Ar 28.4864 8.13898 8.13898
467 1 Ar 28.4864 8.13898 12.2085
468 1 Ar 28.4864 8.13898 16.278
469 1 Ar 28.4864 8.13898 20.3474
470 1 Ar 28.4864 8.13898 24.4169
471 1 Ar 28.4864 8.13898 28.4864
472 1 Ar 28.4864 12.2085 0
473 1 Ar 28.4864 12.2085 4.06949
474 1 Ar 28.4864 12.2085 8.13898
475 1 Ar 28.4864 12.2085 12.2085
476 1 Ar 28.4864 12.2085 16.278
477 1 Ar 28.4864 12.2085 20.3474
478 1 Ar 28.4864 12.2085 24.4169
479 1 Ar 28.4864 12.2085 28.4864
480 1 Ar 28.4864 16.278 0
481 1 Ar 28.4864 16.278 4.06949
482 1 Ar 28.4864 16.278 8.13898
483 1 Ar 28.4864 16.278 12.2085
484 1 Ar 28.4864 16.278 16.278
485 1 Ar 28.4864 16.278 20.3474
486 1 Ar 28.4864 16.278 24.4169
487 1 Ar 28.4864 16.278 28.4864
488 1 Ar 28.4864 20.3474 0
489 1 Ar 28.4864 20.3474 4.06949
490 1 Ar 28.4864 20.3474 8.13898
491 1 Ar 28.4864 20.3474 12.2085
492 1 Ar 28.4864 20.3474 16.278
493 1 Ar 28.4864 20.3474 20.3474
494 1 Ar 28.4864 20.3474 24.4169
495 1 Ar 28.4864 20.3474 28.4864
496 1 Ar 28.4864 24.4169 0
497 1 Ar 28.4864 24.4169 4.06949
498 1 Ar 28.4864 24.4169 8.13898
499 1 Ar 28.4864 24.4169 12.2085
ITEM: TIMESTEP
19999
ITEM: NUMBER OF ATOMS
500
ITEM: BOX BOUNDS pp pp pp
0 36.6254
0 36.6254
0 36.6254
ITEM: ATOMS id type element xu yu zu
0 1 Ar 28.0129 32.4968 31.0716
1 1 Ar 34.2697 0.308186 4.22936
2 1 Ar 35.6604 33.2528 1.44187
3 1 Ar 35.4585 1.69972 13.7875
4 1 Ar 35.7268 32.2649 17.6962
5 1 Ar 33.4907 35.2553 21.6706
6 1 Ar 33.5488 35.3528 25.6407
7 1 Ar 0.570679 0.861773 27.6405
8 1 Ar 35.503 3.50776 0.401653
9 1 Ar 0.935182 3.67495 3.50965
10 1 Ar 36.4333 1.82814 9.90365
11 1 Ar 0.882112 5.41826 10.5047
12 1 Ar 34.7441 6.62064 12.264
13 1 Ar 35.5734 4.15543 20.4264
14 1 Ar 35.9273 2.38815 23.9034
15 1 Ar 34.4371 3.0378 28.7862
16 1 Ar 36.0606 7.54068 1.7342
17 1 Ar 1.04021 7.12828 5.69566
18 1 Ar 32.1471 7.29524 3.93546
19 1 Ar 0.900758 9.20458 10.7753
20 1 Ar 36.4392 8.02171 17.4603
21 1 Ar 36.261 8.29361 21.1902
22 1 Ar 35.8471 6.46189 25.2736
23 1 Ar 4.99958 5.32768 29.9865
24 1 Ar 36.1278 11.8013 1.41485
25 1 Ar 35.6464 10.2492 4.13586
26 1 Ar 0.542847 10.7741 7.61739
27 1 Ar 35.6989 11.7565 14.1593
28 1 Ar 2.33005 12.845 13.5895
29 1 Ar 2.3157 11.3905 18.7151
30 1 Ar 0.452719 12.8391 22.6948
31 1 Ar 36.0554 10.2421 24.6303
32 1 Ar 33.5398 17.7952 1.82583
33 1 Ar 1.01102 13.7924 4.98382
34 1 Ar 34.3995 17.0875 6.26247
35 1 Ar 1.1746 15.673 10.1515
36 1 Ar 0.177451 14.9834 15.7013
37 1 Ar 36.0105 14.2736 19.3467
38 1 Ar 1.31549 17.5201 22.701
39 1 Ar 36.0106 15.6462 29.502
40 1 Ar 4.9051 23.2824 34.3217
41 1 Ar 0.0971493 19.6819 3.28183
42 1 Ar 36.524 20.4405 8.43703
43 1 Ar 1.82039 17.6707 13.0373
44 1 Ar 0.853223 20.0881 16.408
45 1 Ar 35.4131 18.8187 19.5492
46 1 Ar 35.1012 19.1333 24.5056
47 1 Ar 35.049 19.6651 28.3149
48 1 Ar 0.463269 24.1119 35.4446
49 1 Ar 2.01532 26.3881 2.52752
50 1 Ar 35.6766 25.626 4.69877
51 1 Ar 0.419677 21.6845 13.0735
52 1 Ar 1.02864 24.509 17.6881
53 1 Ar 35.9968 22.0021 19.2463
54 1 Ar 34.6661 22.8421 25.3393
55 1 Ar 1.10701 23.8371 28.9995
56 1 Ar 32.818 30.4909 33.3172
57 1 Ar 35.1878 29.8231 4.31869
58 1 Ar 32.7827 35.0224 7.17004
59 1 Ar 0.727903 29.8527 15.9073
60 1 Ar 35.33 26.902 20.4871
61 1 Ar 2.33375 32.0782 20.8179
62 1 Ar 0.466489 27.2853 27.3176
63 1 Ar 2.39415 30.3559 27.8063
64 1 Ar 4.59477 1.52321 0.165827
65 1 Ar 3.59141 35.504 3.50069
66 1 Ar 3.41805 1.02024 7.1404
67 1 Ar 5.38092 1.72425 11.2386
68 1 Ar 7.3882 33.7274 18.0064
69 1 Ar 3.38905 33.8448 23.7275
70 1 Ar 2.87659 0.908547 24.4282
71 1 Ar 5.16134 0.0210258 26.9513
72 1 Ar 2.95373 4.61824 36.0775
73 1 Ar 5.24277 3.76521 3.04542
74 1 Ar 5.07124 4.27272 7.78088
75 1 Ar 6.06254 4.31084 14.4708
76 1 Ar 3.39398 2.36752 16.7538
77 1 Ar 4.94283 3.92706 21.6391
78 1 Ar 2.97236 4.1548 25.6267
79 1 Ar 0.319368 1.9173 33.9325
80 1 Ar 4.15482 8.71767 34.206
81 1 Ar 4.41559 8.9311 3.35546
82 1 Ar 5.31772 7.95581 8.22071
83 1 Ar 4.65492 7.53099 12.5833
84 1 Ar 4.88881 6.96567 16.1631
85 1 Ar 4.00207 7.34841 19.6692
86 1 Ar 2.97756 8.76358 23.3338
87 1 Ar 4.17407 8.22636 28.1246
88 1 Ar 2.52987 9.47267 0.30597
89 1 Ar 4.47384 12.6798 3.3024
90 1 Ar 4.2894 11.3116 9.78346
91 1 Ar 5.9144 10.8001 14.6132
92 1 Ar 4.89845 13.3111 17.7509
93 1 Ar 5.21445 13.1088 21.0321
94 1 Ar 4.48702 13.4097 25.1924
95 1 Ar 1.87478 12.4613 28.7585
96 1 Ar 3.34862 15.7588 0.517629
97 1 Ar 2.694 17.8757 5.81573
98 1 Ar 5.21491 14.6405 7.60695
99 1 Ar 5.23654 14.5092 11.52
100 1 Ar 3.61053 17.2506 16.0032
101 1 Ar 4.53201 16.5713 19.6189
102 1 Ar 4.60238 17.3313 23.81
103 1 Ar 1.13121 17.3917 26.3427
104 1 Ar 5.5407 19.8865 36.5497
105 1 Ar 3.96219 19.921 3.06634
106 1 Ar 6.22291 18.7081 7.25773
107 1 Ar 4.56865 18.1145 10.3933
108 1 Ar 4.76059 21.2791 16.6803
109 1 Ar 3.25994 19.9952 20.787
110 1 Ar 4.69052 29.0858 17.6301
111 1 Ar 5.06685 20.8692 23.8885
112 1 Ar 5.47818 25.2398 0.779499
113 1 Ar 4.60937 23.8351 4.90958
114 1 Ar 1.88063 24.2303 8.03662
115 1 Ar 4.74566 22.4924 10.2245
116 1 Ar 4.64144 25.3515 16.311
117 1 Ar 3.84057 23.3822 20.0887
118 1 Ar 1.61492 24.7008 22.4016
119 1 Ar 5.57155 25.2337 26.5789
120 1 Ar 1.38495 30.6908 1.75828
121 1 Ar 4.52881 27.8711 6.01883
122 1 Ar 6.65823 33.6273 8.6873
123 1 Ar 3.40673 26.6635 12.7376
124 1 Ar 3.62853 31.8447 13.73
125 1 Ar 1.94043 27.7785 18.5162
126 1 Ar 4.17711 29.6391 24.7971
127 1 Ar 3.3016 25.9094 31.4826
128 1 Ar 8.32904 0.936259 0.367374
129 1 Ar 7.99776 1.08156 4.33857
130 1 Ar 7.81339 0.903227 8.64204
131 1 Ar 8.25998 0.990206 13.3482
132 1 Ar 9.5326 1.30374 16.9375
133 1 Ar 7.70686 0.342611 20.4589
134 1 Ar 8.49159 1.99681 26.5478
135 1 Ar 11.7953 32.7033 25.4378
136 1 Ar 7.78268 3.81783 34.4955
137 1 Ar 8.99823 4.39441 3.21155
138 1 Ar 8.3274 4.16973 6.56586
139 1 Ar 7.77413 5.09093 10.2906
140 1 Ar 9.78433 5.51856 16.3967
141 1 Ar 8.18518 4.11268 20.2772
142 1 Ar 6.3849 5.42943 25.8799
143 1 Ar 6.81045 0.83046 30.7
144 1 Ar 8.42444 7.17699 0.000948866
145 1 Ar 7.95541 7.62411 4.66941
146 1 Ar 9.3595 7.65969 8.48471
147 1 Ar 8.18761 8.67512 12.2128
148 1 Ar 8.6882 8.82657 15.9444
149 1 Ar 6.5256 8.19485 22.2597
150 1 Ar 9.73854 8.30541 25.7073
151 1 Ar 11.002 5.89656 34.5686
152 1 Ar 7.37579 11.9267 0.307654
153 1 Ar 9.06606 14.3859 4.50273
154 1 Ar 7.77355 10.8108 8.55782
155 1 Ar 8.87404 11.9602 11.9677
156 1 Ar 8.68529 13.1578 17.707
157 1 Ar 7.51313 9.86372 19.1085
158 1 Ar 8.57473 12.2365 22.9935
159 1 Ar 6.69441 10.8814 29.3501
160 1 Ar 10.1758 16.405 34.7296
161 1 Ar 7.72113 16.2169 1.21866
162 1 Ar 8.37037 15.0947 8.99426
163 1 Ar 8.72951 18.2757 11.4636
164 1 Ar 6.81727 15.1662 14.5254
165 1 Ar 8.19791 16.3545 18.6745
166 1 Ar 6.9863 16.3176 21.7865
167 1 Ar 7.42129 15.2775 26.3504
168 1 Ar 9.08985 20.841 0.279985
169 1 Ar 8.3206 18.1801 4.2964
170 1 Ar 9.39323 21.5606 9.36874
171 1 Ar 7.52205 21.2294 12.6693
172 1 Ar 6.94428 18.6267 15.6034
173 1 Ar 8.32386 19.9814 19.443
174 1 Ar 9.12512 19.0839 23.0531
175 1 Ar 8.19686 21.5612 29.2221
176 1 Ar 6.24565 19.3946 32.6222
177 1 Ar 8.57846 21.8307 4.25419
178 1 Ar 5.80225 25.276 7.98285
179 1 Ar 8.00606 25.5554 11.8147
180 1 Ar 9.0689 21.9136 16.4471
181 1 Ar 7.11282 25.3537 20.0548
182 1 Ar 8.64209 22.6213 24.4814
183 1 Ar 6.83141 25.0912 32.1218
184 1 Ar 7.76598 26.957 35.0492
185 1 Ar 6.6787 33.5203 4.06646
186 1 Ar 9.89789 32.0393 9.53845
187 1 Ar 7.49517 31.4124 12.297
188 1 Ar 8.58504 27.2658 17.5605
189 1 Ar 7.97873 28.8073 20.7825
190 1 Ar 8.28556 26.3189 24.1636
191 1 Ar 8.45303 30.3183 27.9154
192 1 Ar 12.6063 34.9343 0.0743762
193 1 Ar 12.6569 0.179873 4.61202
194 1 Ar 11.4329 35.6843 8.4751
195 1 Ar 12.7315 35.5841 12.1601
196 1 Ar 13.0852 36.4452 16.4366
197 1 Ar 11.777 0.758692 20.2132
198 1 Ar 10.4555 36.6064 24.0933
199 1 Ar 9.92464 34.5173 31.2432
200 1 Ar 11.9308 2.53776 36.5812
201 1 Ar 11.9057 5.25813 4.63498
202 1 Ar 11.1795 2.96543 8.38321
203 1 Ar 10.9645 4.12855 11.8385
204 1 Ar 12.8612 3.33883 16.061
205 1 Ar 11.9208 4.6534 19.9322
206 1 Ar 13.1852 3.9721 24.3587
207 1 Ar 11.7128 5.28337 27.7139
208 1 Ar 12.147 8.416 0.694931
209 1 Ar 12.9086 7.05111 7.56491
210 1 Ar 11.6289 9.93245 10.5353
211 1 Ar 14.7326 4.89157 12.2918
212 1 Ar 11.2881 7.26473 13.7665
213 1 Ar 10.9498 8.60568 21.0746
214 1 Ar 12.624 7.90002 23.962
215 1 Ar 11.5554 7.96151 30.2166
216 1 Ar 13.4702 11.4613 31.696
217 1 Ar 13.0003 10.0215 5.07838
218 1 Ar 10.6825 11.9717 6.99648
219 1 Ar 12.2907 13.5777 10.926
220 1 Ar 13.386 13.4711 15.2691
221 1 Ar 11.6704 13.9552 20.0731
222 1 Ar 12.0015 11.456 23.3779
223 1 Ar 11.5471 13.2341 27.6192
224 1 Ar 13.8204 16.3231 35.1424
225 1 Ar 13.2747 18.0754 4.45646
226 1 Ar 13.1124 14.923 7.47807
227 1 Ar 12.0832 17.2551 13.4413
228 1 Ar 12.8411 16.4347 17.2368
229 1 Ar 13.992 15.0631 22.9244
230 1 Ar 10.9457 16.2246 24.4598
231 1 Ar 10.5125 15.9355 30.0176
232 1 Ar 12.182 21.5285 1.62927
233 1 Ar 15.8786 20.4553 4.90545
234 1 Ar 12.4729 21.7873 7.17492
235 1 Ar 13.2969 20.8951 11.3412
236 1 Ar 14.0929 24.2282 21.0836
237 1 Ar 12.5618 19.5628 21.3427
238 1 Ar 12.4283 19.3502 25.9268
239 1 Ar 10.564 20.1196 33.1614
240 1 Ar 12.5509 30.6144 0.332174
241 1 Ar 11.073 24.4527 2.8827
242 1 Ar 9.28668 25.372 7.58028
243 1 Ar 11.5234 23.6831 10.9206
244 1 Ar 10.58 25.2395 15.0924
245 1 Ar 9.80617 22.8115 21.0495
246 1 Ar 13.9223 22.9618 25.0048
247 1 Ar 10.64 23.7441 27.8319
248 1 Ar 8.89445 30.8778 36.5201
249 1 Ar 12.8281 29.1485 3.88195
250 1 Ar 11.3286 33.2229 3.19451
251 1 Ar 11.7728 28.0891 11.3095
252 1 Ar 14.4003 26.4836 16.1413
253 1 Ar 11.6508 28.3159 19.8896
254 1 Ar 11.5042 28.5733 24.0074
255 1 Ar 11.9234 29.5734 28.3155
256 1 Ar 16.4517 0.0251306 35.7806
257 1 Ar 16.4561 36.5061 4.49119
258 1 Ar 14.5757 0.161087 7.29681
259 1 Ar 16.3787 0.158342 12.4861
260 1 Ar 16.7612 36.0236 16.1503
261 1 Ar 17.7047 1.92337 21.344
262 1 Ar 18.4041 36.2398 25.5918
263 1 Ar 13.3484 34.6743 29.9607
264 1 Ar 17.5843 7.01973 33.5028
265 1 Ar 15.5106 5.81251 2.38919
266 1 Ar 15.061 3.75139 8.27027
267 1 Ar 18.1062 3.30686 13.1736
268 1 Ar 15.8182 4.90785 15.4823
269 1 Ar 15.4973 5.20275 20.0055
270 1 Ar 16.6923 4.10047 24.0501
271 1 Ar 12.3198 1.52914 32.8322
272 1 Ar 14.0218 7.34625 32.6517
273 1 Ar 16.0941 7.80688 5.63911
274 1 Ar 15.4534 8.17006 9.85021
275 1 Ar 16.7984 8.46503 13.1866
276 1 Ar 17.1067 9.2734 16.8386
277 1 Ar 13.5663 7.15531 17.6419
278 1 Ar 17.3934 7.47636 25.7133
279 1 Ar 14.8358 7.60482 28.8092
280 1 Ar 17.6928 12.5122 36.1163
281 1 Ar 17.1423 11.1227 3.72366
282 1 Ar 15.4294 11.9243 8.71513
283 1 Ar 15.3141 11.4955 12.3824
284 1 Ar 16.7656 13.2987 15.3443
285 1 Ar 16.1522 12.6258 20.4583
286 1 Ar 14.8483 12.1619 25.0294
287 1 Ar 16.6714 10.9399 29.2972
288 1 Ar 20.7539 14.9091 36.2055
289 1 Ar 14.8342 14.6295 3.98746
290 1 Ar 17.594 15.9276 9.54574
291 1 Ar 14.8805 15.9458 12.62
292 1 Ar 17.014 17.1691 17.0058
293 1 Ar 15.6912 17.1293 20.0481
294 1 Ar 15.275 17.0122 27.8477
295 1 Ar 15.8143 15.2693 31.2894
296 1 Ar 17.269 19.8917 33.8164
297 1 Ar 15.7315 17.9475 1.77878
298 1 Ar 18.6642 19.5241 8.37613
299 1 Ar 16.7541 19.4611 11.7116
300 1 Ar 16.572 20.1734 15.22
301 1 Ar 17.481 20.2086 21.0746
302 1 Ar 16.6409 20.6164 24.984
303 1 Ar 15.0892 19.2052 30.7226
304 1 Ar 15.5564 22.975 36.1309
305 1 Ar 15.5204 24.3904 4.37558
306 1 Ar 16.6628 26.6811 7.88255
307 1 Ar 14.5249 24.451 12.4515
308 1 Ar 17.5445 24.6011 14.6332
309 1 Ar 18.0356 26.0823 18.1568
310 1 Ar 16.9065 24.9327 23.5755
311 1 Ar 14.3974 24.386 29.0077
312 1 Ar 16.5543 28.7168 0.251017
313 1 Ar 16.8308 29.4034 4.49351
314 1 Ar 12.7634 29.8266 8.2296
315 1 Ar 17.1358 27.3768 11.7356
316 1 Ar 15.3312 32.5876 15.169
317 1 Ar 15.0243 27.9095 21.9649
318 1 Ar 17.1563 28.0087 26.3967
319 1 Ar 15.6099 28.3574 29.435
320 1 Ar 20.2017 35.7167 36.5079
321 1 Ar 22.1794 1.03006 5.41769
322 1 Ar 19.5503 36.6099 8.26538
323 1 Ar 19.3516 33.2784 12.0656
324 1 Ar 18.3728 2.11579 18.1134
325 1 Ar 21.6449 1.97577 21.4776
326 1 Ar 18.01 32.5936 27.0672
327 1 Ar 16.744 0.208892 30.892
328 1 Ar 20.7085 4.85871 36.2554
329 1 Ar 18.6119 5.15182 3.07661
330 1 Ar 21.6149 2.23203 10.4832
331 1 Ar 23.8589 7.83494 15.0096
332 1 Ar 20.4797 4.2142 15.9958
333 1 Ar 20.0442 5.12613 20.3748
334 1 Ar 20.1584 3.52029 25.0957
335 1 Ar 19.4845 2.73174 32.5252
336 1 Ar 20.0245 11.1389 31.9845
337 1 Ar 20.841 9.1308 3.73117
338 1 Ar 19.2825 10.0672 6.76051
339 1 Ar 21.3347 6.96818 9.86247
340 1 Ar 20.3184 7.61324 15.9973
341 1 Ar 19.7653 9.01705 19.5657
342 1 Ar 20.8343 8.18043 25.4066
343 1 Ar 17.9632 5.3932 28.618
344 1 Ar 21.9865 10.5161 0.970457
345 1 Ar 20.8065 12.5439 4.14466
346 1 Ar 18.469 12.0781 10.745
347 1 Ar 22.1394 11.407 12.2988
348 1 Ar 19.2893 10.6621 14.4158
349 1 Ar 20.679 13.289 19.6155
350 1 Ar 19.4874 13.6906 24.0449
351 1 Ar 21.4724 8.96979 29.4224
352 1 Ar 22.3798 15.7753 3.68297
353 1 Ar 19.0713 17.8184 4.22788
354 1 Ar 20.8667 15.9846 7.36526
355 1 Ar 18.1425 16.8955 13.6663
356 1 Ar 20.4258 15.3794 16.0234
357 1 Ar 18.9281 16.235 20.6743
358 1 Ar 20.454 16.5447 25.9805
359 1 Ar 20.2613 14.6529 32.2726
360 1 Ar 19.6265 18.042 0.802279
361 1 Ar 20.2435 21.5698 5.51511
362 1 Ar 22.0458 21.9271 10.1858
363 1 Ar 21.5563 18.8101 14.2794
364 1 Ar 19.5955 19.7664 17.2133
365 1 Ar 21.7157 18.882 20.0414
366 1 Ar 21.2374 20.6235 23.5787
367 1 Ar 18.0178 22.1562 30.3044
368 1 Ar 16.0896 25.6682 33.0701
369 1 Ar 19.2177 24.4493 1.35605
370 1 Ar 18.685 23.8117 8.04961
371 1 Ar 18.734 23.9093 11.5928
372 1 Ar 21.6626 23.029 16.4056
373 1 Ar 21.4519 22.9535 20.063
374 1 Ar 20.522 23.7004 23.8509
375 1 Ar 20.3238 23.6819 28.2831
376 1 Ar 20.0227 31.9477 1.21628
377 1 Ar 20.0272 27.4871 3.90022
378 1 Ar 19.3212 30.8159 7.57017
379 1 Ar 20.7794 29.7857 10.4584
380 1 Ar 19.3534 28.1141 14.4234
381 1 Ar 21.9692 26.8018 21.0977
382 1 Ar 20.3475 27.5947 24.7897
383 1 Ar 20.2616 28.6841 29.4331
384 1 Ar 23.3966 1.37042 35.2759
385 1 Ar 25.7243 0.543835 4.10343
386 1 Ar 22.9592 34.0409 7.8977
387 1 Ar 23.2701 33.4121 11.3519
388 1 Ar 24.1076 36.3941 14.3193
389 1 Ar 23.6411 35.7363 20.9681
390 1 Ar 22.8245 36.4709 24.2397
391 1 Ar 21.4626 33.1383 28.8653
392 1 Ar 22.858 1.44766 1.95001
393 1 Ar 23.2346 6.16643 4.4645
394 1 Ar 26.4014 6.27301 8.50697
395 1 Ar 23.744 5.26885 12.89
396 1 Ar 25.2926 4.31149 17.1688
397 1 Ar 26.0679 3.77158 21.0382
398 1 Ar 23.4562 4.01595 23.9036
399 1 Ar 26.4001 0.189536 30.7143
400 1 Ar 23.2264 6.98403 0.672087
401 1 Ar 25.8594 9.32635 1.41972
402 1 Ar 23.1712 8.88148 7.09453
403 1 Ar 23.6625 3.80741 7.36843
404 1 Ar 23.7601 10.4342 17.3436
405 1 Ar 23.3714 6.39751 21.2868
406 1 Ar 26.8928 7.27092 23.4749
407 1 Ar 24.078 6.9683 28.365
408 1 Ar 24.1752 12.3427 35.7833
409 1 Ar 26.1658 13.6456 2.26273
410 1 Ar 22.4559 12.5893 8.72502
411 1 Ar 25.1242 10.8053 10.3686
412 1 Ar 24.7581 13.5111 14.7302
413 1 Ar 23.8727 12.7394 19.9683
414 1 Ar 23.577 11.1778 24.2919
415 1 Ar 24.1349 10.2142 27.5481
416 1 Ar 23.9584 16.4669 35.7356
417 1 Ar 26.0006 19.316 3.64778
418 1 Ar 24.9002 14.6917 6.97705
419 1 Ar 21.6497 15.741 12.8253
420 1 Ar 24.0627 16.909 15.6369
421 1 Ar 24.0983 16.3768 18.8689
422 1 Ar 22.5427 16.0802 21.7462
423 1 Ar 27.2624 11.866 27.8284
424 1 Ar 22.9978 19.2494 0.876905
425 1 Ar 23.3759 21.2573 6.77349
426 1 Ar 23.7151 17.8137 9.06128
427 1 Ar 26.4326 18.0207 11.8857
428 1 Ar 25.0157 19.629 17.7489
429 1 Ar 24.5116 19.6157 21.8442
430 1 Ar 24.0835 18.8914 26.456
431 1 Ar 25.5804 20.6533 29.3397
432 1 Ar 25.1514 24.8694 0.975835
433 1 Ar 22.1618 24.525 4.15095
434 1 Ar 21.1072 26.0404 10.0208
435 1 Ar 24.1242 21.1321 13.646
436 1 Ar 25.4511 23.5174 16.4676
437 1 Ar 24.9541 22.9917 20.5058
438 1 Ar 23.8687 24.9963 24.472
439 1 Ar 24.0337 24.7283 28.3888
440 1 Ar 24.9013 28.3774 36.4817
441 1 Ar 19.9324 34.8146 4.70988
442 1 Ar 26.7195 28.5259 11.9726
443 1 Ar 25.5352 32.9343 14.3115
444 1 Ar 25.5806 25.8057 13.6195
445 1 Ar 23.9484 29.391 22.7355
446 1 Ar 21.7765 31.2938 24.7107
447 1 Ar 23.7297 28.9023 28.1897
448 1 Ar 31.0838 29.9239 4.83169
449 1 Ar 29.2663 36.234 5.73855